<?xml version="1.0"?>
<VTKFile type="UnstructuredGrid"  version="0.1"  >
<UnstructuredGrid>
<Piece  NumberOfPoints="484" NumberOfCells="849">
<Points>
<DataArray  type="Float64"  NumberOfComponents="3"  format="ascii">0 5 0  0 0 0  3 0 0  3 2 0  5 2 0  5 0 0  10 0 0  10 5 0  5 5 0  5 3 0  3 3 0  3 5 0  1 2 0  9 2 0  0 2.5 0  7.5 0 0  10 2.5 0  0 1.25 0  10 1.25 0  7.5 5 0  7 2 0  1.5 5 0  10 3.75 0  8.75 5 0  8.125 3.4375 0  6.25 5 0  6.48214 3.46429 0  0 3.75 0  1.51613 3.45565 0  1.5 0 0  6.25 0 0  6 2 0  5 1 0  8.75 0 0  8 2 0  3 1 0  4 2 0  4 3 0  2 2 0  3 4 0  6.875 0.90625 0  8.125 0.90625 0  5 4 0  9.101559999999999 3.04688 0  1.01316 0.940789 0  2.00986 0.860206 0  9.04487 4.04487 0  0.87813 4.22124 0  9.09407 0.905931 0  5.94271 1.05729 0  6.875 4.30907 0  7.5 2.76766 0  2.25 5 0  0.81709 2.88418 0  1.875 4.23165 0  8.125 4.34375 0  7.3056 3.57555 0  5.89612 4.1611 0  2.34164 3.5 0  7.5 1.38884 0  5.85821 2.85821 0  6.72432 2.72622 0  1.96548 2.79677 0  8.5 2.57687 0  0.75 5 0  2.25 0 0  0.75 0 0  1.5 1.47652 0  5.54898 3.5192 0  5.625 0 0  4.5 3 0  4.5 2 0  3.5 3 0  3.5 2 0  2.43381 1.43381 0  8.5 2 0  6.5 2 0  0 0.625 0  10 4.375 0  9.375 5 0  0.853905 3.55242 0  5 1.5 0  2.561 2.5 0  9.375 0 0  10 0.625 0  1.3682 2.53718 0  7.50392 4.18512 0  3 0.5 0  5.625 5 0  8.125 5 0  2.49681 4.40386 0  6.875 5 0  10 3.125 0  8.125 0 0  7.5 0.668642 0  6.875 0 0  9.3933 1.48274 0  0 3.125 0  0 4.375 0  0.61956 1.46559 0  10 1.875 0  0 1.875 0  8.609680000000001 1.35123 0  5.5 2 0  5 0.5 0  5 4.5 0  6.75 1.47455 0  9.419980000000001 3.56557 0  9.53125 2.1875 0  3.25 2.5 0  4.25 2.5 0  0.559992 2.36998 0  5.36795 2.55898 0  5.58356 0.588831 0  8.486269999999999 3.89062 0  6.1332 0.539354 0  8.047090000000001 1.45136 0  8.60942 0.571694 0  0.577467 0.555461 0  1.48635 0.589297 0  2.53036 0.75 0  9.116210000000001 2.51709 0  9.57456 2.8125 0  8.56293 3.1163 0  8.88898 3.53643 0  5.75 1.5421 0  6.93648 3.2046 0  6.25 2.47498 0  2.43688 2.99683 0  8.041359999999999 2.88904 0  9.442170000000001 4.44217 0  6.24666 1.45881 0  4.79167 2.5 0  3 4.5 0  1.5 2 0  2.5 2 0  3 1.5 0  5 3.5 0  7.5 2 0  3 3.5 0  3.75 2.5625 0  8.66859 4.45179 0  1.37903 3.99003 0  1.43988 4.49497 0  0.397809 4.0625 0  0.500122 4.55897 0  6.42005 4.0069 0  6.40959 4.51622 0  6.85843 3.7822 0  7.90994 3.89062 0  9.56643 1.0269 0  9.445029999999999 0.51824 0  1.875 0 0  5.4176 4.25 0  0.377504 3.4375 0  6.40075 0.931755 0  5.4702 1.04764 0  1.125 0 0  1.96161 1.33934 0  6.02639 3.67583 0  7.25732 4.59138 0  1.28817 3.02121 0  6.63748 0.453125 0  2.53219 3.93254 0  7.68186 3.22447 0  7.85501 2.45223 0  7.12729 2.46375 0  7.9396 0.453125 0  7.1875 0.334321 0  0.561741 1.01222 0  5.9375 4.63774 0  1.03548 0.476574 0  0.553293 1.91538 0  7.8125 4.67188 0  0.362449 2.79013 0  2.625 0 0  2.0625 0.411279 0  9.0625 4.67941 0  9.601319999999999 3.99956 0  1.44923 1.03359 0  1.05873 1.55557 0  6.32346 3.00345 0  5.80112 2.40796 0  5.43962 2.99278 0  1.91467 3.74232 0  9.015940000000001 0.368523 0  1.125 5 0  1.875 5 0  2.10974 4.59277 0  5.89277 3.27721 0  1.75 2.3461 0  1.93908 3.28802 0  2.16341 2.38138 0  0.955853 2.49343 0  0.9375 4.63093 0  0.375 0 0  5.38159 4.66363 0  5.3125 0 0  9.01932 1.31073 0  7.25 1.69442 0  7.8057 1.13874 0  7.10477 1.25469 0  10 4.6875 0  2.625 5 0  6.75 2.31797 0  8.69821 0.961435 0  7.75 1.7022 0  8.4375 5 0  8.50564 3.49734 0  9.463089999999999 3.18202 0  7.11752 2.85623 0  8.79795 2.8155 0  8.786049999999999 2.31969 0  8.25 2.28844 0  7.14801 4.03679 0  9.6875 0 0  8.75 1.70861 0  2.63602 0.382362 0  2.67082 3.30171 0  5.36882 1.63118 0  0.375 5 0  8.305339999999999 0.338278 0  0 2.1875 0  7.30949 3.20255 0  0 1.5625 0  5.3654 3.86341 0  5.9375 0 0  0 0.3125 0  10 3.4375 0  7.48981 2.37346 0  8.28125 4.67188 0  1.81151 1.67951 0  9.61495 1.80524 0  2.17048 4.00934 0  7.46055 1.02874 0  5.26049 0.75 0  1.66593 3.02701 0  2.638 1.11392 0  2.24977 1.12637 0  2.25 1.74226 0  8.25 1.74512 0  2.69074 1.69074 0  0.533323 3.11002 0  1.6875 0.29915 0  7.6783 3.59781 0  9.6875 5 0  10 0.3125 0  6.74996 4.65454 0  2.9055 2.35975 0  5.71228 3.82735 0  5.83832 0.341169 0  1.16443 3.36317 0  0.555496 3.74455 0  1.02493 3.88108 0  0.310976 0.774938 0  9.09591 1.66477 0  1.75769 4.66111 0  10 1.5625 0  5 3.25 0  0.862303 3.21682 0  5.09972 2.33495 0  7.80622 0.803953 0  7.14826 0.684217 0  7.60873 0.334321 0  0 4.6875 0  1.32148 0.290672 0  2.28638 2.69483 0  2.71954 2.80353 0  8.39583 1.09771 0  0.331504 1.65293 0  0.340027 1.27087 0  0.824258 1.20911 0  5.27386 1.31411 0  1.17789 1.23766 0  1.25 2 0  1.66918 2.66159 0  1.2718 3.66983 0  9.683529999999999 1.33217 0  5.69643 4.41855 0  5.32093 0.352926 0  2.64184 3.62599 0  6.65056 1.15478 0  2.4375 4.72846 0  2.73459 4.18472 0  6.61087 3.16222 0  9.31959 1.94086 0  7.79465 4.342 0  7.47579 3.85723 0  8.18083 2.60095 0  9.126939999999999 4.36011 0  9.66672 2.49211 0  0.332418 0.330152 0  0 0.9375 0  6.5625 5 0  8.4375 0 0  5.3125 5 0  9.0625 0 0  10 4.0625 0  9.0625 5 0  7.8125 5 0  6.5625 0 0  7.1875 5 0  0 2.8125 0  0 3.4375 0  0 4.0625 0  10 2.8125 0  10 0.9375 0  10 2.1875 0  7.1875 0 0  5.9375 5 0  3 4.75 0  7.8125 0 0  1.20323 4.26735 0  6.12323 4.3815 0  1.10665 2.76699 0  0.7959580000000001 1.72135 0  6.20981 3.30032 0  0.323212 2.14612 0  9.30256 1.18748 0  7.25 2 0  3.52574 2.32537 0  3.25 2 0  3.8307 2.26156 0  5.31978 3.29224 0  3.00731 2.69115 0  9.22888 2.23285 0  9.53125 4.73586 0  9.164669999999999 3.36522 0  9.31039 3.86624 0  9.73035 3.59375 0  2.71783 4.61196 0  1.80801 0.608989 0  6.25 2 0  6.49185 1.67392 0  6.75 2 0  1.67843 1.23169 0  6.35256 0.304534 0  8.30668 0.651319 0  1.22974 4.71463 0  8.572900000000001 4.73426 0  6.02955 1.68667 0  9.74511 3.28125 0  7.551 4.52061 0  9.685219999999999 0.314778 0  9.733790000000001 4.51407 0  9.69243 0.728013 0  9.347099999999999 4.16088 0  5.71031 0.863559 0  1.69524 3.97081 0  8.7224 4.1241 0  8.42737 4.24392 0  8.190720000000001 4.03496 0  8.78519 3.82446 0  8.16732 3.73519 0  1.27207 0.79509 0  8.865930000000001 0.718241 0  8.601900000000001 0.266713 0  1.72818 0.942492 0  2.21058 4.30839 0  1.58309 4.24046 0  6.79203 3.47916 0  6.94811 1.70249 0  0.838114 0.69973 0  0.771177 0.311104 0  3.25 3 0  1.31395 1.70911 0  5.06792 2.64561 0  4.52083 2.67708 0  4.25 3 0  4.52083 2.32292 0  4.25 2 0  4.75 3 0  4.75 2 0  2.35448 0.500452 0  2.23264 3.21877 0  0.74661 3.96273 0  7.75 2 0  0.295596 2.50218 0  0.820014 2.23258 0  0.69856 2.62207 0  1.125 2.25987 0  5.52055 2.29994 0  5.59088 2.74497 0  5.60491 3.23264 0  7.15495 0.97162 0  8.33991 1.46606 0  2.72475 1.3998 0  8.361520000000001 2.86641 0  8.25628 3.15735 0  7.9694 3.19375 0  5.70257 1.24254 0  5.9756 1.3482 0  7.16056 4.32239 0  6.89172 0.29758 0  6.8695 0.620319 0  6.62975 0.767948 0  7.01973 4.75225 0  3.375 2.75 0  4.125 2.25 0  4.02083 2.69792 0  5.66179 4.69882 0  0.277291 3.70071 0  7.74701 2.93393 0  1.47787 2.27933 0  5.8636 0.622026 0  6.12693 0.831046 0  9.389480000000001 2.46096 0  7.77443 1.41239 0  8.130879999999999 1.18521 0  5.27159 3.59232 0  6.37622 1.21064 0  6.14448 2.75899 0  6.43224 2.70429 0  9.77102 4.21875 0  6.40392 0.604896 0  6.71906 4.05028 0  6.59326 4.30246 0  6.12207 3.96164 0  6.32437 3.72109 0  1.54453 3.73449 0  9.26704 2.78636 0  2.4375 0.196742 0  8.832660000000001 3.08484 0  9.13322 0.625856 0  9.77284 2.03125 0  2.75 2 0  6.59604 3.71112 0  2.30921 3.77253 0  8.520020000000001 2.26991 0  6.375 2.23749 0  6.05013 2.27689 0  9.05467 3.75886 0  2.66084 2.25202 0  0.264706 3.04792 0  0.226421 4.53125 0  0.634348 3.3589 0  2.28109 0.856936 0  2.76302 0.879064 0  8.72429 3.32766 0  3 0.25 0  9.75545 3.01209 0  1.43693 2.79718 0  6.86898 2.9483 0  7.06391 3.44692 0  9.371700000000001 0.804559 0  9.42957 0.256478 0  5.25 2 0  5.75 2 0  5.59922 1.75697 0  5 1.75 0  3 3.75 0  5.57922 0.329515 0  6.08875 0.228974 0  5.55846 4.03416 0  7.50254 3.40945 0  2.40611 2.29355 0  7.50387 3.02853 0  2.75678 0.616071 0  5.51116 1.41579 0  2.18558 2.93356 0  6.06685 3.07541 0  6.40625 4.78333 0  5 4.75 0  5.21754 2.85799 0  1.4824 4.746 0  7.93697 3.61609 0  0.6949650000000001 4.73988 0  0.742656 4.45002 0  0.612635 4.21853 0  0.198904 4.21875 0  3.625 2.78125 0  0.5625 0 0  5.79065 3.58848 0  2.76703 3.84365 0  8.002079999999999 1.69941 0  4.85232 2.24321 0  4.83364 2.75523 0  7.68281 4.00462 0  8.49587 1.67032 0  7.95759 4.14321 0  2.25 2 0  2.68155 3.05129 0  6.52422 2.4561 0  7.50084 1.64458 0  </DataArray>
</Points>
<Cells>
[...]
<PointData  Scalars="f_14"> 
<DataArray  type="Float64"  Name="f_14"  format="ascii">5.1000000000000000e+01  1.0000000000000000e+00  1.0000000000000000e+01  1.8000000000000000e+01  3.4000000000000000e+01  2.6000000000000000e+01  1.0100000000000000e+02  1.5100000000000000e+02  7.6000000000000000e+01  4.4000000000000000e+01  2.8000000000000000e+01  6.0000000000000000e+01  1.5088830267117526e+01  9.7237848633160908e+01  1.3500000000000000e+01  5.7250000000000000e+01  1.1350000000000000e+02  4.1250000000000000e+00  1.0412500000000000e+02  1.0725000000000000e+02  6.8452223465367553e+01  5.3250000000000000e+01  1.2912500000000000e+02  1.2756250000000000e+02  9.9895302051109724e+01  9.0062500000000000e+01  7.5449914084028904e+01  2.9125000000000000e+01  3.2487462095096994e+01  3.2500000000000000e+00  4.0062500000000000e+01  5.2529338197789158e+01  2.8000000000000000e+01  7.7562500000000000e+01  8.3379184851266231e+01  1.1999999999999998e+01  2.5000000000000000e+01  3.5000000000000000e+01  1.8234892297609470e+01  4.2000000000000000e+01  5.6604643908536907e+01  7.5315507709489964e+01  5.8000000000000000e+01  1.0907643714855767e+02  7.5321446154021450e+00  1.0030570339050053e+01  1.2045235262173384e+02  4.0507674286429669e+01  8.9913999098385972e+01  4.3836244362080933e+01  9.0862056123165445e+01  8.3623357405341764e+01  5.6062500000000000e+01  2.2909532559254991e+01  4.3771096902383533e+01  1.0997035945380006e+02  8.9236279872654180e+01  7.4785398699972063e+01  3.4747430650469255e+01  7.0315160405770186e+01  5.8645634691337612e+01  7.1343202549838750e+01  2.5906005856158224e+01  9.6079555950319346e+01  5.1562500000000000e+01  6.0625000000000000e+00  1.5625000000000000e+00  1.2819191125916568e+01  6.0844072031417902e+01  3.2640625000000000e+01  3.9250000000000000e+01  2.9250000000000000e+01  3.1250000000000004e+01  2.1250000000000000e+01  1.4352710234142076e+01  9.0496201792135693e+01  6.0652549508762064e+01  1.7812500000000000e+00  1.3928125000000000e+02  1.3889062500000000e+02  3.1200637916578788e+01  3.0500000000000004e+01  2.3659762286977742e+01  8.8890625000000000e+01  1.0178125000000000e+02  2.1597913405304265e+01  9.8819007025241618e+01  1.0500000000000000e+01  8.2640625000000000e+01  1.1701562500000000e+02  4.7873826577764220e+01  9.8265625000000000e+01  1.2053125000000000e+02  6.7015625000000000e+01  6.3704928693897898e+01  4.8265625000000000e+01  9.8110935871281356e+01  2.0531250000000000e+01  3.9281250000000000e+01  9.1100225761363376e+00  1.0803125000000000e+02  8.0312500000000000e+00  8.6315061344727809e+01  4.3896587789749177e+01  2.6500000000000004e+01  6.6500000000000000e+01  5.9768751077305616e+01  1.1941360475916800e+02  1.0549800346776247e+02  2.5393524204904978e+01  3.2495366056494007e+01  1.6100789148199588e+01  4.7227073218445533e+01  3.5397299906005912e+01  1.1028960693629828e+02  4.2805709628012110e+01  7.9000935676892041e+01  7.9912340134577676e+01  3.8509008285112927e+00  6.9104008652231750e+00  1.0565752577501344e+01  1.0362089056464629e+02  1.1225653232812465e+02  1.0261368067268145e+02  1.1192981389415000e+02  4.4390813669238668e+01  7.9652182352240715e+01  6.1230269694824862e+01  2.8699546350307582e+01  9.2811159485531718e+01  1.3195886831332717e+02  5.1797734086096945e+01  3.7998478753505189e+01  5.0500000000000000e+01  1.6994154638344096e+01  1.8747064585109658e+01  1.4500000000000000e+01  5.0500000000000000e+01  7.6020594633770472e+01  3.4500000000000000e+01  2.9052659590085153e+01  1.1971322515108226e+02  3.9022473485813023e+01  4.6153153261583000e+01  3.6184549934632720e+01  4.4265116752469510e+01  8.0717682789372759e+01  8.6538636760097518e+01  8.4763264618212872e+01  1.0169999402273081e+02  9.7452752813421824e+01  9.2939504694692417e+01  4.5156250000000000e+00  6.8802348894069240e+01  2.7175109934652721e+01  4.9800933919394019e+01  3.6271369321313848e+01  2.2656250000000000e+00  1.3024101504671798e+01  7.0699393928460708e+01  9.9488130429938266e+01  2.6529889636519023e+01  4.9170702585900351e+01  4.0826208283045453e+01  9.1090049926458803e+01  8.5662726735089592e+01  7.4922974478125610e+01  6.8383808890548622e+01  5.5929188372238556e+01  6.0824542691029873e+00  8.1599955554164907e+01  4.8759022867717681e+00  1.2076619138594340e+01  1.0867106301932309e+02  1.9208055628495330e+01  7.8906250000000009e+00  7.6199421311980515e+00  1.2898434506636247e+02  1.2777903465510737e+02  9.5892201064066107e+00  1.1814689846629319e+01  6.7879375984190162e+01  5.3094005884211285e+01  5.2799626057070036e+01  3.7192196534604825e+01  8.4951246164096332e+01  5.2265625000000000e+01  5.4515625000000000e+01  4.9607812399078945e+01  6.3826254031708991e+01  2.0848356423408653e+01  3.1487321804443365e+01  2.2031060929620878e+01  1.9447654305985203e+01  4.6604341204701313e+01  1.1406250000000000e+00  7.4657388704929659e+01  2.9222656250000000e+01  9.1806849815452892e+01  6.9385162680569991e+01  7.2598300275540538e+01  6.3161352992831034e+01  1.4494531250000000e+02  5.7890625000000000e+01  6.7651915391113363e+01  8.4445296166826623e+01  7.6924520504844992e+01  1.2219140625000000e+02  1.0605523687376237e+02  1.1516160012239338e+02  7.8758829246285131e+01  1.0257993970946302e+02  9.7385222355282551e+01  8.9722892724979303e+01  9.1898403202754309e+01  9.4847656250000000e+01  9.1309097842114966e+01  9.2757189935030464e+00  3.2315875072280399e+01  3.8388184855762852e+01  5.1140625000000000e+01  7.3084670955887603e+01  1.0570312500000000e+01  8.5297341058285795e+01  5.8828125000000000e+00  6.2286848030192438e+01  3.6253906250000000e+01  1.1953125000000000e+00  1.2463281250000001e+02  7.9500605578077739e+01  1.1604836830211833e+02  1.5207979000956488e+01  1.0323838198722774e+02  4.1367206262543526e+01  6.6430652534903189e+01  3.1350482745081461e+01  2.7795025267046793e+01  1.2553794195545379e+01  1.2159939836210421e+01  1.6469340518342285e+01  8.4602004562792260e+01  1.6212509235010522e+01  2.3947567857368590e+01  5.7404328069233204e+00  9.5051732891233030e+01  1.4484765624999997e+02  1.0119531250000000e+02  9.2865300600013342e+01  2.2613972804101760e+01  6.7581552251975594e+01  3.7373131681076785e+01  3.0111405327046764e+01  3.2342442770839263e+01  3.6303154608007269e+01  3.7462249046702887e+00  9.5644779457645498e+01  4.9434475061966836e+01  1.0588281250000000e+02  4.7125000000000000e+01  2.7002106914079715e+01  4.0501966017498475e+01  6.9566856468246357e+01  5.8626056784385021e+01  6.2184446413400771e+01  4.4945312500000000e+01  4.5832058564436906e+00  2.5370281654832041e+01  2.6807446850942128e+01  8.1041393331246184e+01  8.7314116834837900e+00  6.3615405228040807e+00  8.4220297466324059e+00  3.4493637610888577e+01  1.0035549630914382e+01  1.6120034071413400e+01  2.3803767770216705e+01  3.4410056531604631e+01  1.0074044766487633e+02  7.5332948373081550e+01  3.0615568935185500e+01  3.6558583347570774e+01  5.5432185995682424e+01  5.2733979186496889e+01  4.4872494166551995e+01  7.4144936636998878e+01  1.0078988175981054e+02  1.0488637483946771e+02  9.4843951168563791e+01  9.1851417150115495e+01  1.2581041003248980e+02  1.0990497683796715e+02  2.1809112710956038e+00  2.7578125000000000e+00  9.4066406250000000e+01  7.2191406250000000e+01  7.9222656250000000e+01  8.3128906250000000e+01  1.3400781250000000e+02  1.3312890625000000e+02  1.1203515625000000e+02  4.4066406250000000e+01  1.0266015625000000e+02  1.6820312500000000e+01  2.4632812500000000e+01  3.4007812500000000e+01  1.1682031250000000e+02  1.0275781250000000e+02  1.1057031250000000e+02  5.2660156249999993e+01  8.6253906250000000e+01  5.5125000000000000e+01  6.2035156250000000e+01  4.2256750133421015e+01  8.0898550484486194e+01  2.2953204356889643e+01  1.1861376637269236e+01  6.9291936332779827e+01  1.2559046009675450e+01  9.4838725016481433e+01  7.2262348045867725e+01  2.5119948291282682e+01  1.9562500000000000e+01  2.6592286274499518e+01  5.3902032689306004e+01  2.6146835867955037e+01  1.0228618305564655e+02  1.3779640357760357e+02  1.1359634992467362e+02  1.2192754102780327e+02  1.2367521907511946e+02  5.1783431932996827e+01  7.9954682397402248e+00  5.6636968759411111e+01  5.7547252224272157e+01  6.4584087889019784e+01  1.1596736131110838e+01  4.3960819619668278e+01  7.5863062909243354e+01  4.8594113056454511e+01  1.2147868818815829e+02  5.0254113855040217e+01  1.1973963969232422e+02  1.0311489755898984e+02  9.5933402565548832e+01  1.3761738803857884e+02  9.7693657808703634e+01  1.2645734657278292e+02  3.8921885986395324e+01  3.9709444385183190e+01  1.1658048833634292e+02  1.1350308793757159e+02  1.0751860511861916e+02  1.1389157347890712e+02  1.0381073553799010e+02  7.5159184356083726e+00  8.5099569879721770e+01  7.7280300509559183e+01  9.8292542473653111e+00  4.5757346459426181e+01  4.3062357215844543e+01  8.0408305960166743e+01  6.4879214834088103e+01  5.5023842621567072e+00  3.2329277593019712e+00  2.9562500000000000e+01  1.3987956760448160e+01  4.3178829770403702e+01  3.6722104356109995e+01  3.7062500000000000e+01  3.3195331982722273e+01  2.7062500000000000e+01  4.1562500000000000e+01  3.1562500000000000e+01  8.9788700846346092e+00  3.1141073652895809e+01  3.6302538505824302e+01  7.9725506616653860e+01  1.5713182227907334e+01  1.6261408127034464e+01  1.9433151406939327e+01  1.7945642289073355e+01  4.7231987770097241e+01  5.2899806732098178e+01  5.8379412126989685e+01  6.1349672863903784e+01  8.3403067774705789e+01  1.4184468706362614e+01  9.7139567116025219e+01  9.8735282529308321e+01  9.4987084505246386e+01  4.1349979064291418e+01  4.6582968435115781e+01  9.5189027397441677e+01  5.1328401113605686e+01  5.3971835991502175e+01  5.1789522767132482e+01  9.7731006051223446e+01  2.8365793403193994e+01  2.8805171599186014e+01  3.2452087114099875e+01  7.8824862193804108e+01  3.0171409281569385e+01  8.8987966067716243e+01  1.9444560088516653e+01  3.9587894402199524e+01  4.4927863464496092e+01  1.0641471638607574e+02  7.4617982212616113e+01  7.7866231926928577e+01  5.6870004648030616e+01  5.1723398379873508e+01  6.2384660995014151e+01  6.6490185775928794e+01  1.3345400227217749e+02  4.7158026429243549e+01  8.5676151360655709e+01  8.6698488578549913e+01  7.5699835735339732e+01  7.5926851658552962e+01  3.6137202770343080e+01  1.0830565178515880e+02  7.8355941450383435e+00  1.0595202159529120e+02  8.8604658442596019e+01  1.0683230776955460e+02  1.8608411288048160e+01  7.9986227869582521e+01  3.8318551676558990e+01  9.3312948847607615e+01  6.0923944242019573e+01  5.5985028646870511e+01  1.1696108113448221e+02  2.1251258725799939e+01  2.1494277079466446e+01  4.2913811665546703e+01  2.7606511794980850e+01  1.0659392283553304e+01  1.1459113521627522e+01  1.0722170099279971e+02  1.0125000000000000e+01  1.1655006828864502e+02  2.4550483461623696e+01  7.5901422003764807e+01  8.4198841839322284e+01  9.3379430147231503e+01  9.1279572147008764e+01  3.9245291493087315e+01  4.8292278200273941e+01  4.3555698459232126e+01  3.2125000000000000e+01  3.8125000000000000e+01  3.3906491124577336e+01  3.9854653779247499e+01  6.7888713442149950e+01  9.0399529431232878e+01  2.1470885386863088e+01  8.6379420322590875e+01  1.0451118064777143e+01  3.9338245262807334e+01  2.7792907444616503e+01  6.4477498170594615e+01  8.9592072910701006e+01  7.1125000000000000e+01  4.7300647750920682e+01  4.9745799039113272e+01  9.9086024659164593e+01  4.7589602029563814e+01  4.3381265402015259e+01  3.9452253553519817e+01  3.7656853071327539e+01  3.0252639749027875e+01  1.3164062500000000e+00  6.5814875801836322e+01  3.9638892375673585e+01  8.0599072151751031e+01  3.5844019353289688e+01  4.0738807327356568e+01  9.9544691994554043e+01  8.7432516565360231e+01  1.0519731383582797e+02  1.8600217587977706e+01  2.9307815728550771e+01  6.5453568039940365e+01  7.2686532528596061e+01  </DataArray> 
</PointData> 
</Piece>
</UnstructuredGrid>
</VTKFile>