<?xml version="1.0"?>
<VTKFile type="UnstructuredGrid"  version="0.1"  >
<UnstructuredGrid>
<Piece  NumberOfPoints="1695" NumberOfCells="3016">
<Points>
<DataArray  type="Float64"  NumberOfComponents="3"  format="ascii">0 10 0  0 0 0  5 0 0  5 7.96077e-06 0  5.00076 0.0523651 0  5.00305 0.104706 0  5.00685 0.157016 0  5.01218 0.209277 0  5.01903 0.261475 0  5.02739 0.313593 0  5.03727 0.365616 0  5.04866 0.417527 0  5.06156 0.469311 0  5.07596 0.520952 0  5.09187 0.572434 0  5.10926 0.623742 0  5.12815 0.67486 0  5.14852 0.725773 0  5.17037 0.776464 0  5.19369 0.826919 0  5.21848 0.877122 0  5.24472 0.927058 0  5.27241 0.976711 0  5.30154 1.02607 0  5.3321 1.07511 0  5.36409 1.12383 0  5.39748 1.1722 0  5.43228 1.22022 0  5.46847 1.26786 0  5.50603 1.31512 0  5.54497 1.36198 0  5.58527 1.40842 0  5.62691 1.45443 0  5.66988 1.50001 0  5.71417 1.54512 0  5.75977 1.58976 0  5.80665 1.63392 0  5.85482 1.67758 0  5.90425 1.72073 0  5.95492 1.76336 0  6.00683 1.80545 0  6.05995 1.84699 0  6.11428 1.88797 0  6.16978 1.92837 0  6.22646 1.96818 0  6.28428 2.0074 0  6.34324 2.046 0  6.40331 2.08398 0  6.46447 2.12132 0  6.52672 2.15802 0  6.59002 2.19407 0  6.65435 2.22944 0  6.71971 2.26413 0  6.78607 2.29814 0  6.85341 2.33144 0  6.9217 2.36404 0  6.99093 2.39591 0  7.06108 2.42705 0  7.13213 2.45746 0  7.20404 2.48712 0  7.27681 2.51601 0  7.35041 2.54415 0  7.42482 2.5715 0  7.50001 2.59808 0  7.57596 2.62386 0  7.65265 2.64885 0  7.73006 2.67302 0  7.80815 2.69638 0  7.88692 2.71893 0  7.96632 2.74064 0  8.04635 2.76152 0  8.12697 2.78155 0  8.208170000000001 2.80074 0  8.289910000000001 2.81908 0  8.372170000000001 2.83656 0  8.45492 2.85317 0  8.53815 2.86892 0  8.62182 2.88379 0  8.705909999999999 2.89778 0  8.7904 2.91089 0  8.875249999999999 2.92311 0  8.96045 2.93444 0  9.045959999999999 2.94488 0  9.131769999999999 2.95442 0  9.217829999999999 2.96307 0  9.30414 2.9708 0  9.39066 2.97764 0  9.477359999999999 2.98357 0  9.56423 2.98858 0  9.65122 2.99269 0  9.738329999999999 2.99589 0  9.82551 2.99817 0  9.912739999999999 2.99954 0  10 3 0  10 0 0  15 0 0  15 10 0  10 10 0  10 7 0  9.999980000000001 7 0  9.91272 7.00046 0  9.825480000000001 7.00183 0  9.738300000000001 7.00411 0  9.651199999999999 7.00731 0  9.5642 7.01142 0  9.47734 7.01644 0  9.39063 7.02236 0  9.304119999999999 7.0292 0  9.21781 7.03694 0  9.131740000000001 7.04558 0  9.04594 7.05512 0  8.960419999999999 7.06556 0  8.87523 7.07689 0  8.790369999999999 7.08912 0  8.70589 7.10223 0  8.6218 7.11622 0  8.538119999999999 7.13109 0  8.4549 7.14683 0  8.37214 7.16345 0  8.28988 7.18093 0  8.20814 7.19926 0  8.126950000000001 7.21845 0  8.046329999999999 7.23849 0  7.9663 7.25937 0  7.88689 7.28108 0  7.80813 7.30362 0  7.73003 7.32699 0  7.65263 7.35116 0  7.57594 7.37615 0  7.49998 7.40193 0  7.42479 7.4285 0  7.35039 7.45586 0  7.27679 7.48399 0  7.20402 7.51289 0  7.1321 7.54255 0  7.06106 7.57296 0  6.99091 7.6041 0  6.92168 7.63597 0  6.85338 7.66857 0  6.78605 7.70187 0  6.71969 7.73588 0  6.65433 7.77057 0  6.59 7.80595 0  6.5267 7.84199 0  6.46445 7.87869 0  6.40329 7.91603 0  6.34322 7.95401 0  6.28426 7.99262 0  6.22644 8.031829999999999 0  6.16977 8.07164 0  6.11426 8.11205 0  6.05994 8.15302 0  6.00681 8.194559999999999 0  5.95491 8.236649999999999 0  5.90423 8.27928 0  5.8548 8.322430000000001 0  5.80664 8.36609 0  5.75975 8.41025 0  5.71416 8.454890000000001 0  5.66987 8.50001 0  5.62689 8.545579999999999 0  5.58525 8.59159 0  5.54496 8.63804 0  5.50602 8.684889999999999 0  5.46845 8.732150000000001 0  5.43227 8.7798 0  5.39747 8.827809999999999 0  5.36408 8.876189999999999 0  5.33209 8.924899999999999 0  5.30153 8.97395 0  5.2724 9.023300000000001 0  5.24471 9.07296 0  5.21847 9.12289 0  5.19369 9.1731 0  5.17037 9.223549999999999 0  5.14852 9.274240000000001 0  5.12815 9.32516 0  5.10926 9.37627 0  5.09186 9.427580000000001 0  5.07596 9.47906 0  5.06156 9.5307 0  5.04866 9.58249 0  5.03727 9.634399999999999 0  5.02739 9.68642 0  5.01903 9.73854 0  5.01218 9.79074 0  5.00685 9.843 0  5.00305 9.89531 0  5.00076 9.947649999999999 0  5 10 0  0 5 0  15 5 0  3.79881 4.90116 0  0 7.5 0  2.5 10 0  0 2.5 0  2.5 0 0  12.5 0 0  12.5 10 0  15 2.5 0  15 7.5 0  12.6 3.75 0  2.67123 7.32877 0  3.19436 2.43867 0  12.4773 7.47727 0  6.42232 5 0  8.52786 5 0  10.8312 5 0  1.87643 4.0676 0  4.63842 6.72303 0  11.7264 1.89696 0  5.10197 3.50862 0  12.5922 5.6154 0  1.26098 6.25 0  10 8.5 0  13.49 1.51 0  1.58011 1.58011 0  1.41091 8.589090000000001 0  13.7275 8.72748 0  3.60712 8.68702 0  13.7465 6.62115 0  10 1.5 0  11.3361 6.38258 0  11.5518 8.74708 0  2.43879 5.40417 0  6.08751 6.42049 0  7.47509 4.06523 0  7.47509 5.93477 0  13.6375 4.68704 0  13.6719 2.87909 0  11.3483 3.20769 0  3.75 0 0  5.11522 4.82704 0  4.54072 2.27376 0  11.25 0 0  3.48734 6.1491 0  2.80034 1.23267 0  3.79932 3.5956 0  1.27761 2.87754 0  15 3.75 0  3.75 10 0  1.25 10 0  15 1.25 0  13.75 0 0  0 6.25 0  1.25 0 0  0 1.25 0  0 8.75 0  15 6.25 0  15 8.75 0  13.75 10 0  11.25 10 0  0 3.75 0  6.28813 3.78865 0  4.01134 1.18349 0  11.0868 7.5974 0  1.4917 7.40956 0  9.646559999999999 4.30808 0  9.67956 5.672 0  1.31949 5.08852 0  4.55573 7.93237 0  2.51803 8.435890000000001 0  12.5781 2.62788 0  12.6412 8.90788 0  11.6352 4.26118 0  8.52657 6.05876 0  8.52657 3.94124 0  13.5323 7.67247 0  2.85597 4.44205 0  2.33513 3.0911 0  14.1345 5.62916 0  3.69833 7.16721 0  11.875 0.851345 0  10.7922 2.33739 0  5.50992 7.27561 0  10.5588 3.85276 0  4.50301 5.68103 0  10.8572 0.943477 0  10 9.25 0  2.54299 6.36792 0  5.85296 2.88793 0  0.959454 3.78332 0  7.3637 5 0  5.68124 5.57503 0  12.2892 6.53118 0  12.6991 4.68313 0  11.7513 5.19438 0  2.37074 2.04039 0  0.8168840000000001 2.08614 0  2.0097 0.772384 0  14.0241 3.7901 0  14.1722 2.11598 0  13.125 0.669767 0  12.5596 1.48204 0  10.5718 5.87821 0  4.49217 4.17402 0  0.643352 8.125 0  1.875 9.35665 0  0.715923 6.96119 0  14.3746 8.125 0  14.3529 9.352869999999999 0  0 9.375 0  0.625 10 0  0.89806 0.89806 0  14.1532 0.846805 0  0 5.625 0  2.91013 9.222569999999999 0  4.23324 9.283149999999999 0  3.28817 7.90524 0  7.00861 3.32802 0  10.7358 8.875 0  15 3.125 0  0.750271 9.0625 0  11.7469 7.13072 0  0 3.125 0  6.94828 6.65464 0  11.8194 7.96996 0  12.0146 9.38208 0  5.57358 4.16316 0  13.125 10 0  3.38525 0.701142 0  15 4.375 0  5.30159 6.27781 0  0 4.375 0  3.10991 3.21946 0  13.3609 5.89846 0  14.2286 7.26685 0  12.999 6.88183 0  12.8977 8.15381 0  4.41873 3.07418 0  0.763666 4.53959 0  10 0.75 0  10 2.25 0  10 7.75 0  3.42564 1.69574 0  2.05087 6.92258 0  6.24281 7.14802 0  10.7636 6.89807 0  6.65032 5.80344 0  10.625 10 0  2.11203 7.81556 0  1.93536 5.94611 0  3.10772 5.12272 0  2.18704 4.7235 0  5.33672 2.28196 0  2.54546 3.78589 0  13.0082 2.04788 0  11.8976 5.91214 0  7.94083 3.49438 0  7.94083 6.50562 0  4.70385 1.52089 0  13.3186 3.53928 0  0.641752 5.3125 0  10.6364 8.160690000000001 0  9.289619999999999 6.29466 0  13.2621 9.286020000000001 0  7.94578 4.59534 0  6.78376 4.34685 0  7.94578 5.40466 0  3.12999 6.75408 0  13.1661 5.20893 0  14.2962 4.94171 0  11.0392 1.65043 0  4.30074 8.585380000000001 0  14.3711 2.8125 0  9.224449999999999 3.70369 0  3.89555 2.58494 0  1.89404 2.55019 0  10.3198 4.51549 0  10.0053 6.29607 0  9.80612 4.98658 0  11.9131 3.61966 0  11.453 2.52799 0  10.6632 3.1749 0  11.1887 5.58304 0  9.90277 3.67827 0  4.375 0 0  8.990539999999999 5.52995 0  1.5549 3.4837 0  0.602244 2.8125 0  3.56741 9.35561 0  5.78398 4.79859 0  4.45526 4.83297 0  9.16474 4.77939 0  14.326 6.27595 0  3.84221 4.2484 0  13.1703 4.19866 0  5.25487 7.9266 0  11.3696 9.366009999999999 0  2.97947 5.75355 0  3.6156 5.51827 0  3.99355 6.57511 0  15 6.875 0  10.625 0 0  0.625 0 0  0 0.625 0  4.42541 0.6631050000000001 0  14.3719 1.47825 0  2.18355 1.38295 0  2.75173 0.5915899999999999 0  3.20071 3.87736 0  3.925 7.77617 0  4.32661 7.28002 0  12.5125 0.846309 0  0.630488 6.33125 0  3.99381 1.96425 0  4.375 10 0  3.125 10 0  14.375 0 0  15 8.125 0  3.125 0 0  1.875 10 0  0 6.875 0  0 8.125 0  13.125 0 0  15 0.625 0  1.875 0 0  0 1.875 0  11.875 0 0  15 5.625 0  15 9.375 0  14.375 10 0  11.875 10 0  15 1.875 0  5.2285 2.89704 0  12.1424 8.51587 0  12.8145 6.19698 0  6.40452 3.17693 0  4.90677 8.445740000000001 0  14.3857 8.739319999999999 0  5.72941 3.50311 0  1.38785 4.46344 0  11.2476 8.187709999999999 0  12.3498 3.19362 0  0.606138 1.47493 0  14.1382 4.37108 0  4.91814 7.24539 0  5.09994 5.71494 0  1.30063 6.84484 0  1.25169 7.98565 0  14.4719 3.39866 0  10.9827 4.35804 0  11.158 3.78048 0  10.3143 5.32472 0  12.9297 3.0987 0  1.36453 2.29713 0  0.5888949999999999 7.53743 0  13.5901 2.08435 0  0.521446 3.39336 0  1.84724 5.35946 0  1.13292 5.66133 0  1.32412 9.16564 0  11.5395 1.33702 0  10.4423 1.875 0  12.415 2.05744 0  12.0851 4.679 0  10.4387 7.375 0  11.3769 4.76716 0  10.5526 9.424910000000001 0  12.0025 2.72455 0  6.1191 4.33508 0  2.35605 9.00769 0  1.47308 1.00508 0  3.99966 5.92481 0  3.09012 8.441990000000001 0  1.94451 8.368220000000001 0  2.71607 7.89914 0  2.87239 1.7891 0  4.55294 3.61759 0  13.1587 8.663259999999999 0  12.5607 9.452669999999999 0  0.469542 4.05996 0  13.8105 9.269819999999999 0  12.1751 4.11413 0  12.3664 8.014799999999999 0  1.5625 0.452437 0  5.03175 4.05638 0  2.78317 2.78916 0  4.68761 8.969799999999999 0  9.014760000000001 4.23156 0  8.7974 6.53478 0  6.89301 5.3005 0  12.9957 7.62402 0  13.8095 8.16675 0  13.5007 7.11857 0  8.472770000000001 3.40443 0  13.8206 5.19258 0  12.3892 5.11986 0  13.1826 2.58925 0  0.9375 9.564640000000001 0  14.5213 3.99415 0  8.464130000000001 4.4707 0  8.00285 4.0204 0  8.00821 5.93412 0  11.5625 0.425673 0  12.1904 0.427803 0  8.460319999999999 5.53269 0  4.78892 5.23956 0  4.4521 6.21745 0  4.10894 5.32899 0  3.38853 4.54605 0  6.81541 3.81961 0  13.674 0.555577 0  5.94125 7.58449 0  3.90503 0.673969 0  5.15822 6.78076 0  3.18843 7.27119 0  10.5297 6.4141 0  1.71359 6.51857 0  13.8523 6.06444 0  2.06607 3.58269 0  10 2.625 0  5.81494 6.85901 0  12.0597 1.33772 0  13.2651 6
[...]
<PointData  Scalars="f_16-1"> 
<DataArray  type="Float64"  Name="f_16-1"  format="ascii">7.9875711760620616e+03  7.9875989968071171e+03  7.9873031683669087e+03  7.9873072221355114e+03  7.9849570384028939e+03  7.9878472113522948e+03  7.9938562390300558e+03  8.0007727900379341e+03  8.0153893738492197e+03  8.0286302298643732e+03  8.0452082345057588e+03  8.0615841035370668e+03  8.0752107955681658e+03  8.0941227135607933e+03  8.1103273886901852e+03  8.1250126411569836e+03  8.1386142430317877e+03  8.1526712353240373e+03  8.1634145433995000e+03  8.1753424653230495e+03  8.1822905736446673e+03  8.1891004820730286e+03  8.1962882777231189e+03  8.1977003012919104e+03  8.2007309014255043e+03  8.2060301633476611e+03  8.2022828409738886e+03  8.2008389954245922e+03  8.1956630495181416e+03  8.1939283397685704e+03  8.1861149401973908e+03  8.1770426812331998e+03  8.1670168542632728e+03  8.1616194937927821e+03  8.1462716051658635e+03  8.1333443652835649e+03  8.1209888523857544e+03  8.1034624117758467e+03  8.0898837940383974e+03  8.0690134628344440e+03  8.0499648244644277e+03  8.0297171563772654e+03  8.0114601175920398e+03  7.9835070443010527e+03  7.9621729889740245e+03  7.9356997048952435e+03  7.9089811614507053e+03  7.8812286698946536e+03  7.8496791257752602e+03  7.8216599143905987e+03  7.7868301897738193e+03  7.7524381339015772e+03  7.7158521754013800e+03  7.6829132241142916e+03  7.6402143894468691e+03  7.5993570153638793e+03  7.5611594421872460e+03  7.5107431698380578e+03  7.4673715373197792e+03  7.4189187863980324e+03  7.3665384629648024e+03  7.3120355359609275e+03  7.2632170123876449e+03  7.2022738532459498e+03  7.1428585162734862e+03  7.0837254388979463e+03  7.0175249280110393e+03  6.9499898945571531e+03  6.8859543168557038e+03  6.8110943547842389e+03  6.7400967995317651e+03  6.6611785754005714e+03  6.5904739489303465e+03  6.5054817965840402e+03  6.4310608893723875e+03  6.3441854404204314e+03  6.2611826807932584e+03  6.1811918199767679e+03  6.0903014517333077e+03  6.0127275507002678e+03  5.9235186169552626e+03  5.8503898121495604e+03  5.7738989851481565e+03  5.7023844433670683e+03  5.6352586274899122e+03  5.5935216365069500e+03  5.5418990106196434e+03  5.5731736192410317e+03  5.4841762023475912e+03  5.8967721624920450e+03  6.3589641008473354e+03  6.4279277055883549e+03  9.4321362924365749e+03  -3.0377260928353735e+02  4.1003236608579772e+02  2.2009674582556931e+03  2.2157777616714061e+03  3.3610726173622481e+02  -9.9387882443081494e+05  7.4051396774031734e+05  8.1861676217800823e+03  6.3827922430752942e+03  6.0551313378664345e+03  5.6008720659493420e+03  5.6166969316235700e+03  5.5868028086613058e+03  5.5278581362318491e+03  5.6100185936028947e+03  5.6524593428951202e+03  5.7071482108547534e+03  5.7820136111782958e+03  5.8536014929285511e+03  5.9382748947189339e+03  6.0166282489662490e+03  6.1024968196086220e+03  6.1816230251717134e+03  6.2711453921452876e+03  6.3481528471039510e+03  6.4340766446992120e+03  6.5116486660120754e+03  6.5952733958957715e+03  6.6659850759764431e+03  6.7431219079596885e+03  6.8169809687044472e+03  6.8869272114318992e+03  6.9531889819185044e+03  7.0243641470872362e+03  7.0821510590902299e+03  7.1480549892150220e+03  7.2031895599603604e+03  7.2633514199393821e+03  7.3160886244448056e+03  7.3687995122438224e+03  7.4217647674722512e+03  7.4669341567674510e+03  7.5145191601178067e+03  7.5570670311913209e+03  7.6042743362683159e+03  7.6406442639342786e+03  7.6811935738572301e+03  7.7162547719547547e+03  7.7580990136297423e+03  7.7865308732312660e+03  7.8217553091799218e+03  7.8521426862915387e+03  7.8788058978360823e+03  7.9131195288470872e+03  7.9351681241012466e+03  7.9612594396599470e+03  7.9873246115073998e+03  8.0077078558060175e+03  8.0312767554022339e+03  8.0506407283201997e+03  8.0690598953084236e+03  8.0904535415341052e+03  8.1035214818348168e+03  8.1197220246935667e+03  8.1350773127180200e+03  8.1470873153167349e+03  8.1579334400986363e+03  8.1720867533363798e+03  8.1763554540541336e+03  8.1887733323051716e+03  8.1902118723873573e+03  8.1999755864705621e+03  8.1993702323217349e+03  8.2029183234488246e+03  8.2052964817707343e+03  8.2007045986857629e+03  8.2005101747438330e+03  8.1959012004611595e+03  8.1887776735275202e+03  8.1841164582442780e+03  8.1724768235142001e+03  8.1610609346050960e+03  8.1538812157132916e+03  8.1369743940406333e+03  8.1251677398058428e+03  8.1101587257612873e+03  8.0929240425999014e+03  8.0780720940926903e+03  8.0607429727940735e+03  8.0462488165506938e+03  8.0271633403383721e+03  8.0153915060416939e+03  8.0011455587841119e+03  7.9947102547730683e+03  7.9858575182488794e+03  7.9865384287986763e+03  7.9893142700212684e+03  8.0153566674331696e+03  2.7859716187112126e+03  7.7038731180125824e+03  7.9966185592736574e+03  7.8298253532876415e+03  7.9966046111216210e+03  7.8301996938137236e+03  2.2880054248820870e+03  2.3087861773778118e+03  2.2209874366020335e+03  2.2415989209248273e+03  2.4931186462568785e+03  7.8607758188433363e+03  7.8490456757067122e+03  2.1682163778405188e+03  7.0791763163034830e+03  5.7606698540067200e+03  3.4566122929462458e+03  7.8846610033865172e+03  7.6976515628305415e+03  1.7687664019625010e+03  7.6022886746323702e+03  2.6221571660781456e+03  7.9273764934191195e+03  3.2830608940162591e+02  2.1695658647472592e+03  7.9117870990122719e+03  7.9179167401811883e+03  2.1971736975561535e+03  7.8868789633243332e+03  2.4281728371135341e+03  3.1251213193024006e+02  2.6472022082844655e+03  1.6396612983588759e+03  7.8390543823293419e+03  7.3681702296723115e+03  6.6344730485089822e+03  6.6352882389816068e+03  2.5842893976013984e+03  2.3256671912407132e+03  2.3213957021869614e+03  7.8225930138294416e+03  7.4841999444816283e+03  7.8489903824220437e+03  1.7999847421597215e+03  7.7644631397163603e+03  7.8737640844556163e+03  7.7495184209502340e+03  7.9283244278272059e+03  2.5894015934657241e+03  7.8232506753644966e+03  7.8993171455788397e+03  2.0863691648396430e+03  2.3269421920953287e+03  8.0093044327362932e+03  7.8995711049632127e+03  7.9893839870727952e+03  7.9894808192872470e+03  2.5959328564360490e+03  2.1036156140852540e+03  2.3421096477923220e+03  1.8135660211927793e+03  8.0093250246718790e+03  7.2567270957530200e+03  7.9140568045975615e+03  1.6065044749417075e+03  7.9174412938233345e+03  4.6818653918557375e+03  4.6285646758847088e+03  7.9213418775906757e+03  7.8803311892294023e+03  7.8800415441783707e+03  2.1934095554495407e+03  2.0784610179682713e+03  2.8413454872061211e+03  5.8965294906063909e+03  5.8969920417477542e+03  2.2485200204502316e+03  7.8057104275466754e+03  7.8684152084285597e+03  2.5935598613446127e+03  7.8089687759237086e+03  1.8275637298699171e+03  1.2806953557118611e+03  7.7140142071294686e+03  3.3598224611060955e+03  7.6199968594117045e+03  1.1439765106418793e+03  3.0455645826333290e+02  7.8447847259834143e+03  7.6160204572900084e+03  7.9467733344243870e+03  6.6087365829810660e+03  7.3586331008466086e+03  2.4388773071944156e+03  2.6343729808160615e+03  2.8945877343231173e+03  7.8826646424422825e+03  7.9510804960354317e+03  7.8820489356470771e+03  2.5006281925980356e+03  2.2174558346611307e+03  2.1943213218901142e+03  2.0246958392548365e+03  3.4989090154360224e+03  7.6301794995487326e+03  7.9589299389016496e+03  7.8839986254099786e+03  7.9602965181536920e+03  2.1997399965519435e+03  2.2121099570624328e+03  7.9904373768696096e+03  7.9382444454696315e+03  7.9375143543047925e+03  2.1931952583000407e+03  8.0138198217114241e+03  7.8625273448940234e+03  7.9341258737741919e+03  7.8607619108615518e+03  7.0969082090280508e+03  1.0419142715660062e+03  2.4009723495349599e+03  7.9460195296095453e+03  2.1580328470022273e+03  8.0031449266479822e+03  7.1205203917882427e+03  1.8570857678028956e+03  1.9612007011724102e+03  7.4143160426084378e+03  2.3656480728991419e+03  7.8665339889005108e+03  2.7271097501835147e+03  7.5354369104454609e+03  8.0138064420274168e+03  7.8199367949864245e+03  2.5335616979949109e+03  2.3250650599002706e+03  2.3560794125830425e+03  2.1341617871742701e+03  7.7426347850555821e+03  7.9603184885076807e+03  2.8784112692435838e+02  2.0551612880231050e+02  2.1207945269033635e+02  7.8738333474468800e+03  7.8842522703885197e+03  7.5476670431145540e+03  2.1565591870212611e+03  7.0419749050857417e+03  1.3259940102856156e+03  7.8908670440133255e+03  7.8809162382494869e+03  7.7787982352654008e+03  7.8580388303024838e+03  7.8513662063742649e+03  7.8415725262061460e+03  2.1516153840400316e+03  2.7031777191030087e+03  6.4879641951739932e+03  6.4891304077319537e+03  7.9669340717553605e+03  2.4362931438614150e+03  7.9689851933651271e+03  9.7306567289700536e+02  5.2540190425813453e+03  2.2173770340434758e+03  6.2410803545117633e+03  6.9600389696427374e+03  6.2421040854184339e+03  7.8181460283206288e+03  2.5976200503856517e+03  2.6431720548351250e+03  1.2787385164786765e+03  7.9323457741948641e+03  2.3232980501045604e+03  5.3294531428788005e+03  7.8211828937307746e+03  7.8977144491428717e+03  3.8995068825149287e+03  4.1844147173341080e+03  4.4793979730482806e+03  2.5210513821733516e+03  1.8667701837120626e+03  2.3159234789186376e+03  3.1176703595480635e+03  4.4400380115137987e+03  7.8925969024091710e+03  5.3648664066245747e+03  7.9097282987480130e+03  7.9658585196786435e+03  7.8710004060850752e+03  7.3098561320273902e+03  7.6111844648278084e+03  5.1667136484056964e+03  2.5188673634189158e+03  7.7123525092780610e+03  2.5452379991794478e+03  7.9077895645653398e+03  1.6230540916843454e+03  7.7982679490203072e+03  7.7310678897156413e+03  7.7443829623125712e+03  2.4118215614118831e+03  1.3137581873335901e+03  7.9383476583894835e+03  7.9904935864907247e+03  7.9604453352264827e+03  2.1632658348404957e+03  7.8873556962943758e+03  7.8558674756578548e+03  7.7888980607501098e+03  7.8501925119465413e+03  7.7922853018156593e+03  2.0587292798004742e+03  7.9676489911875124e+03  7.8729533162337348e+03  7.8925679542948947e+03  7.8108107199125843e+03  2.2453896665702064e+03  2.1225829204071883e+03  7.8108749662040746e+03  7.8621343714231980e+03  8.0030645422004482e+03  7.9917744072456508e+03  2.3495522655370005e+03  2.1485233571480421e+03  7.8620052826204346e+03  7.9918082629142800e+03  2.1204965895161627e+03  2.7348364461676042e+03  2.1662507945927814e+03  2.2629840752019345e+03  2.1351170947019755e+03  2.1085201240841634e+03  7.7002100936824017e+03  1.9155448974771807e+03  2.5038961913006938e+03  7.3866574263391167e+03  7.9934725633027356e+03  2.1786404008622858e+03  7.4814657650833160e+03  7.9170402400260127e+03  1.4878989458873807e+03  2.3386112431021729e+03  7.9583721504237383e+03  2.5898047503759212e+03  7.7556392126287892e+03  7.5142705373842246e+03  7.9264269623866667e+03  7.9291199119068979e+03  2.4523919084208164e+03  3.2372132258606962e+03  2.8305487174877921e+03  3.9197623216731076e+03  2.3359174875935782e+03  7.9242825854672228e+03  7.9649665755822452e+03  2.2075736687498470e+03  7.9734658568300156e+03  7.8838118364756228e+03  7.9347989382343931e+03  7.9141412884887059e+03  1.6076515399826217e+03  7.5137328970464534e+02  2.0418086308707216e+03  2.7623451080073332e+03  1.0756154652497137e+03  3.0703170056950303e+03  9.5328036768962090e+02  2.1248225044749774e+03  7.2306794124264861e+03  7.8765573249201416e+03  7.9096410035294539e+03  7.7012471918871861e+03  7.8737788751043736e+03  7.8974440320603571e+03  7.8716182967355717e+03  7.8732653468714307e+03  7.6676716050477653e+03  2.1571644980135302e+03  2.1498997390057289e+03  7.9796170300254144e+03  2.2294381731390708e+03  2.6414975344402155e+03  2.0362977374992090e+03  7.8934776602521360e+03  7.5461932951950430e+03  7.8524980358197699e+03  8.0110205504169944e+03  5.3833464034416374e+03  5.8154467760339812e+03  6.8738149407755773e+03  2.2110474620244240e+03  2.2106440607538320e+03  2.3321609591415317e+03  6.1084495127872733e+03  2.5978509340178121e+03  2.6972735489251227e+03  2.2505375691273020e+03  7.9277161923281847e+03  2.5789598108071650e+03  5.8473516178450318e+03  6.2909144453895515e+03  6.2782504477237335e+03  1.7829727167890392e+03  2.0563319334783546e+03  5.8506009190370451e+03  7.5535039778407227e+03  7.6651888716358044e+03  7.6658263170985010e+03  7.7541646593695450e+03  7.0423620317777768e+03  2.2355717289339077e+03  7.7717933032914179e+03  7.8956280413575369e+03  7.6434236719026449e+03  7.8370724406827649e+03  3.1338263607581694e+03  7.9001003044056342e+03  2.5221512360171319e+03  7.8769075343152663e+03  -4.5595094194532976e+02  7.5485442493058536e+03  1.8636167899309883e+03  2.4486117008843571e+03  3.1304922367850799e+02  8.0177558634278898e+02  1.3508909349893579e+03  1.8707242895611148e+03  7.9021449598244908e+03  7.9784212301923817e+03  7.7958710684909747e+03  7.6263325903977639e+03  7.8000150918673226e+03  2.2513066598677237e+03  7.8492272402937224e+03  6.9122257639667332e+03  7.8210759106023106e+03  7.8573222277606810e+03  2.4226852501271369e+03  7.1823882913949819e+03  7.8825444635923086e+03  7.8969415371553378e+03  8.4040416733709992e+02  2.2550256751483494e+03  7.8946578412936469e+03  7.9159989257051548e+03  2.1145738636369138e+03  7.9316923577968064e+03  2.5390756998762645e+03  2.6752517526979600e+03  4.9470852121616163e+03  2.4087261898502211e+03  7.4115179453730843e+03  2.1891492783643548e+03  1.5569316118097020e+03  7.8452064211429497e+03  7.8080140806079944e+03  7.8491321565488506e+03  7.8855141816657278e+03  2.3064617631185474e+03  2.5372515349576006e+03  7.9664101162743091e+03  7.9583348139161826e+03  7.9198806549441588e+03  2.5797701366432498e+03  7.9437336226654097e+03  7.9174492927975598e+03  6.8803020975676482e+03  6.6990543472109239e+03  7.9584552640394459e+03  7.3649570759132966e+03  6.8934077982581421e+03  7.9430229450621136e+03  6.5636202176851002e+03  7.8930246571619709e+03  2.6162300966805110e+03  2.5892537139422056e+03  2.5796648893714741e+03  7.3984075506807430e+03  7.3991876685124980e+03  2.1528902040082921e+03  2.2012886401366272e+03  4.1143792490355290e+03  7.2412443444010451e+03  7.1696017723141977e+03  6.9257372237459977e+03  2.7355964937779290e+03  7.8521950070120547e+03  7.7719303301254122e+03  7.8758300337956289e+03  7.9452029245606864e+03  2.1229823165351349e+03  2.2273296799758705e+03  4.0692128233165954e+03  3.0411930793845049e+03  7.9301072421110639e+03  7.9756423521021761e+03  7.9651100533053414e+03  7.8671504868477878e+03  7.8726002742296623e+03  7.8608038746482307e+03  2.2373203475471100e+03  2.2777064665358616e+03  2.1887277386379496e+03  3.2331827737519943e+03  2.1841259531986120e+03  7.9423541727909160e+03  3.4731716730796825e+03  1.5550910553640317e+03  7.3355133317635700e+03  1.4278922281391945e+03  2.6641666424099571e+03  7.6960737069399438e+03  7.5537059923117122e+03  8.0237619147974856e+03  6.7329650483084233e+03  2.3113137886117029e+03  7.8964334746139739e+03  7.8820748816697878e+03  7.9908825574615075e+03  7.9696727869663209e+03  7.9815344584694994e+03  6.8024638243323507e+03  2.3320381264865423e+03  2.2465992829934539e+03  2.2650715516323621e+03  2.1646410011558391e+03  2.2133437101370314e+03  2.8459038944114996e+03  7.7818120361392957e+03  7.8733357018759189e+03  7.8735823678179704e+03  7.9098535828944678e+03  1.9523171762911993e+03  1.9703174828379199e+03  2.1015279506202869e+03  2.2777411316959460e+03  8.0034062542893944e+03  7.9013289705774187e+03  7.8481298733509911e+03  2.2876496430450329e+03  2.1697385618295925e+03  1.1283891657715506e+03  7.6923143622084199e+03  6.1482793849154923e+03  1.3446611025569434e+03  7.6195198849926001e+03  7.9100069279724858e+03  7.9411941335446845e+03  7.6690969092517435e+03  7.8407125287524686e+03  7.9451151874742700e+03  7.8736073953167288e+03  2.5765246266995982e+03  2.0528692638411053e+03  1.8672517895204714e+03  7.1906668904344506e+03  2.0462796543777683e+03  7.9524018639851574e+03  3.1732018018115073e+03  7.9156329311159107e+03  7.9813434275347181e+03  7.9939558067923917e+03  7.8892221340033284e+03  7.8742257997117895e+03  7.5132086998173861e+02  6.9371756752372107e+02  1.7022204941508078e+03  7.8483461286950669e+03  5.1234741053124635e+03  6.8299761227364515e+03  2.5584891462594001e+03  7.2748497482143966e+03  7.8183802487594949e+03  5.7190902654357251e+03  7.9689881570330272e+03  7.8814900503749905e+03  2.1952857781161988e+03  1.8922770564769939e+03  1.1425959349155241e+03  7.7563503742522453e+03  7.8006112727594154e+03  6.3282792270936370e+03  3.8294038955989326e+03  2.3516438677330943e+03  2.7828582830178398e+03  7.4164019257986592e+03  7.3661712983592988e+03  7.5097289754619014e+03  7.8424734805468042e+03  2.3913760389754552e+03  7.8989858968819844e+03  1.9389492858331430e+03  1.3054408323624446e+03  7.9453542816132440e+03  2.2325399353250455e+03  7.8791899149870378e+03  7.8207263123697830e+03  5.0313530281363219e+03  2.3004978787789032e+03  2.2582049302603987e+03  2.9099860276988793e+03  5.5745750672160248e+03  7.4873373411174007e+03  2.3681212586152864e+02  7.1843931243862107e+02  7.7368649807744350e+03  2.1802547983819782e+03  7.8625838470883955e+03  5.2605173947777275e+03  2.2636261202664464e+03  2.4100413194204352e+03  7.9132119646578203e+03  7.8572722599434237e+03  7.8666638512036225e+03  2.5159545229799660e+03  8.0543350858320173e+03  1.3377316817177675e+03  7.9383825625200525e+03  7.5967218670894063e+03  2.3484766197180929e+03  2.2475089013611082e+03  2.2389176045991903e+03  1.8019615737343547e+03  7.8569324009976553e+03  7.8446085635056534e+03  7.8328006607805301e+03  7.7875377607597229e+03  1.7556570903074959e+02  8.8214333894460231e+02  7.9683582580967677e+03  2.2042398639184403e+03  2.6336807213593429e+03  2.5813206305632202e+03  7.8108472150393209e+03  7.9364156499984610e+03  2.3427716861625877e+03  7.7496997281169943e+03  7.8740683700663185e+03  7.8634005384224820e+03  2.2132081751765650e+03  2.1292413338742722e+03  7.8421830277233885e+03  2.0801307319727885e+03  7.9114533297256339e+03  2.1637272651277922e+03  2.3256682662682210e+03  2.7008003909772997e+03  2.6609307811953531e+03  7.8352107606024201e+03  5.3971669406668007e+03  1.8928989902898043e+03  7.9045476599190442e+03  7.9176474743155895e+03  5.5043735897437909e+03  7.8901810697920519e+03  7.8866126774821360e+03  7.5987909814879013e+03  7.2045439521702165e+03  2.1643978644270328e+03  7.8281241818268609e+03  7.8424398590271139e+03  6.4214620869518694e+03  2.8940896432539728e+02  6.7619426999287327e+02  7.5813429308665063e+03  7.9090264586474532e+03  2.5078112648163033e+03  7.9717663651893963e+03  7.9051863864981597e+03  6.6704075062628726e+03  7.9554720573477434e+03  3.2590166972396503e+02  -1.0370980641489862e+02  2.7527944913216976e+02  7.3961542412907938e+03  2.4272822847350562e+03  2.4825955193075165e+03  2.3917795466347270e+03  7.8444709918335966e+03  1.9937116285308171e+03  7.1309235626461668e+03  6.8273208907974495e+03  7.0827577279538073e+03  5.5158495831086138e+03  8.0246434156918613e+03  2.4915552758287031e+03  7.8988023293797687e+03  7.8827943189406506e+03  7.7511574476941441e+03  7.8763548049502388e+03  2.1367711971307535e+03  7.9741945002841976e+03  7.8989395210765215e+03  2.4015436397400522e+03  7.8631121323648640e+03  2.2629800657760820e+03  5.6809525935781203e+03  5.0638861980330430e+03  6.1997845272057584e+03  6.5491608615549048e+03  7.6485464673773595e+03  4.7228357594784593e+03  7.4499758900976303e+03  6.4832472738764473e+03  6.0617006574203187e+03  2.5040804446498532e+03  7.8174779448913705e+03  7.9304735081749086e+03  1.5543083620534433e+03  1.1398082843069499e+03  1.3513677673299819e+03  9.8906263026165220e+02  6.7168939325938129e+02  7.8915804278965770e+03  7.1520379760593778e+03  1.4975354455095840e+03  7.7879421620107432e+03  2.2068547828016362e+03  7.8572369555784171e+03  7.8246364071955377e+03  7.8317415731483306e+03  7.8063767822805885e+03  7.7390752709842573e+03  7.8488398627145862e+03  7.7828315479960429e+03  7.9460849851466592e+03  4.3108645938348009e+03  2.1835738869493766e+03  2.0812160052733984e+03  2.1668151829669532e+03  6.9210515675999650e+03  7.8630951320720878e+03  7.9748036771648667e+03  2.3845240378462813e+03  7.9741718309519538e+03  2.2820978940293930e+03  2.2013639196347044e+03  8.014951624