<?xml version="1.0"?>
<VTKFile type="UnstructuredGrid"  version="0.1"  >
<UnstructuredGrid>
<Piece  NumberOfPoints="765" NumberOfCells="1230">
<Points>
<DataArray  type="Float64"  NumberOfComponents="3"  format="ascii">0 5 0  0 0 0  1 0 0  1 2.65359e-06 0  1.00015 0.017455 0  1.00061 0.0349021 0  1.00137 0.0523386 0  1.00244 0.0697591 0  1.00381 0.08715829999999999 0  1.00548 0.104531 0  1.00745 0.121872 0  1.00973 0.139176 0  1.01231 0.156437 0  1.01519 0.173651 0  1.01837 0.190811 0  1.02185 0.207914 0  1.02563 0.224953 0  1.0297 0.241924 0  1.03407 0.258821 0  1.03874 0.27564 0  1.0437 0.292374 0  1.04894 0.309019 0  1.05448 0.32557 0  1.06031 0.342022 0  1.06642 0.35837 0  1.07282 0.374609 0  1.0795 0.390733 0  1.08646 0.406739 0  1.09369 0.42262 0  1.10121 0.438373 0  1.10899 0.453993 0  1.11705 0.469474 0  1.12538 0.484812 0  1.13398 0.5000019999999999 0  1.14283 0.5150400000000001 0  1.15195 0.529921 0  1.16133 0.544641 0  1.17096 0.559195 0  1.18085 0.573578 0  1.19098 0.5877869999999999 0  1.20137 0.601817 0  1.21199 0.615663 0  1.22286 0.629322 0  1.23396 0.6427890000000001 0  1.24529 0.656061 0  1.25686 0.6691319999999999 0  1.26865 0.6820000000000001 0  1.28066 0.6946600000000001 0  1.29289 0.707108 0  1.30534 0.719341 0  1.318 0.731355 0  1.33087 0.743146 0  1.34394 0.754711 0  1.35721 0.766046 0  1.37068 0.777147 0  1.38434 0.788012 0  1.39819 0.798637 0  1.41222 0.809018 0  1.42643 0.819153 0  1.44081 0.829039 0  1.45536 0.838672 0  1.47008 0.8480490000000001 0  1.48496 0.857168 0  1.5 0.866026 0  1.51519 0.874621 0  1.53053 0.882948 0  1.54601 0.891007 0  1.56163 0.898795 0  1.57738 0.906309 0  1.59326 0.913546 0  1.60927 0.920506 0  1.62539 0.927184 0  1.64163 0.933581 0  1.65798 0.939693 0  1.67443 0.945519 0  1.69098 0.951057 0  1.70763 0.956305 0  1.72436 0.9612619999999999 0  1.74118 0.965926 0  1.75808 0.970296 0  1.77505 0.97437 0  1.79209 0.978148 0  1.80919 0.981627 0  1.82635 0.984808 0  1.84357 0.987689 0  1.86083 0.990268 0  1.87813 0.992546 0  1.89547 0.994522 0  1.91285 0.9961950000000001 0  1.93024 0.997564 0  1.94767 0.99863 0  1.9651 0.999391 0  1.98255 0.999848 0  2 1 0  2 0 0  5 0 0  5 5 0  2 5 0  2 4 0  2 4 0  1.98254 4.00015 0  1.9651 4.00061 0  1.94766 4.00137 0  1.93024 4.00244 0  1.91284 4.00381 0  1.89547 4.00548 0  1.87813 4.00745 0  1.86082 4.00973 0  1.84356 4.01231 0  1.82635 4.01519 0  1.80919 4.01837 0  1.79208 4.02185 0  1.77505 4.02563 0  1.75807 4.02971 0  1.74118 4.03408 0  1.72436 4.03874 0  1.70762 4.0437 0  1.69098 4.04894 0  1.67443 4.05448 0  1.65798 4.06031 0  1.64163 4.06642 0  1.62539 4.07282 0  1.60927 4.0795 0  1.59326 4.08646 0  1.57738 4.09369 0  1.56163 4.10121 0  1.54601 4.109 0  1.53053 4.11705 0  1.51519 4.12538 0  1.5 4.13398 0  1.48496 4.14283 0  1.47008 4.15195 0  1.45536 4.16133 0  1.4408 4.17096 0  1.42642 4.18085 0  1.41221 4.19099 0  1.39818 4.20137 0  1.38434 4.21199 0  1.37068 4.22286 0  1.35721 4.23396 0  1.34394 4.24529 0  1.33087 4.25686 0  1.318 4.26865 0  1.30534 4.28066 0  1.29289 4.2929 0  1.28066 4.30534 0  1.26864 4.318 0  1.25685 4.33087 0  1.24529 4.34394 0  1.23395 4.35721 0  1.22285 4.37068 0  1.21199 4.38434 0  1.20136 4.39819 0  1.19098 4.41222 0  1.18085 4.42643 0  1.17096 4.44081 0  1.16133 4.45536 0  1.15195 4.47008 0  1.14283 4.48496 0  1.13397 4.5 0  1.12538 4.51519 0  1.11705 4.53053 0  1.10899 4.54601 0  1.1012 4.56163 0  1.09369 4.57738 0  1.08645 4.59327 0  1.07949 4.60927 0  1.07282 4.6254 0  1.06642 4.64163 0  1.06031 4.65798 0  1.05448 4.67443 0  1.04894 4.69099 0  1.04369 4.70763 0  1.03874 4.72437 0  1.03407 4.74118 0  1.0297 4.75808 0  1.02563 4.77505 0  1.02185 4.79209 0  1.01837 4.80919 0  1.01519 4.82635 0  1.01231 4.84357 0  1.00973 4.86083 0  1.00745 4.87813 0  1.00548 4.89547 0  1.00381 4.91285 0  1.00244 4.93025 0  1.00137 4.94767 0  1.00061 4.9651 0  1.00015 4.98255 0  1 5 0  0 2.5 0  5 2.5 0  5 3.75 0  3.5 5 0  5 1.25 0  3.5 0 0  3.125 2.5 0  1.58163 2.5 0  3.24306 1.23958 0  3.68287 3.69444 0  0 1.25 0  0 3.75 0  4.0625 1.95207 0  0.917168 1.71513 0  0.790817 3.125 0  4.12431 0.77583 0  2.48951 1.80474 0  2.35332 3.09311 0  4.25 5 0  2.91502 4.25248 0  3.95303 2.84076 0  2.75 0 0  1.55469 3.27814 0  1.70831 1.7431 0  4.25 0 0  2.75 5 0  3.08481 3.24627 0  4.32158 4.19295 0  0.715377 2.40764 0  0 4.375 0  0 0.625 0  4.35346 3.43708 0  0.718276 3.84603 0  0.6710390000000001 1.05711 0  3.125 0.5686909999999999 0  3.56821 4.34397 0  2.2487 2.43067 0  2.57467 3.70162 0  3.39721 1.88976 0  2.6448 0.999023 0  0 1.875 0  5 1.875 0  0 3.125 0  5 0.625 0  5 3.125 0  5 4.375 0  2 0.5 0  2 4.5 0  3.86483 1.35194 0  4.50239 1.5625 0  0.562607 4.3868 0  0.5 0 0  3.689 2.35715 0  4.52277 2.8125 0  4.55377 2.1875 0  0.559315 0.532794 0  1.32527 1.37475 0  0.418045 1.5625 0  1.3009 2.06397 0  3.65786 0.512077 0  3.15512 3.77557 0  1.10869 3.52114 0  1.11929 2.72781 0  0.395408 3.4375 0  0.395408 2.8125 0  0.5 5 0  2.52956 0.481838 0  4.60299 0.9375 0  4.5046 0.439344 0  4.625 5 0  1.88786 2.90014 0  2.11737 3.52346 0  2.66797 2.70393 0  3.58987 3.19542 0  3.125 5 0  2.42336 4.25 0  4.00567 4.57163 0  2.92485 2.04489 0  2.81138 1.44895 0  2.32294 1.35481 0  2.375 5 0  0.561123 1.98704 0  4.22092 2.48426 0  1.88358 2.16148 0  3.61307 0.968549 0  4.4375 4.60993 0  0.328573 4.02664 0  4.25417 1.18081 0  3.52171 2.76237 0  2.66748 4.58981 0  3.90481 4.06851 0  5 4.0625 0  4.5649 3.8246 0  3.99393 3.24591 0  0 4.6875 0  0.325453 0.856687 0  1.50733 3.6823 0  3.20286 4.57487 0  4.10886 0.37523 0  2.10544 1.69113 0  1.18911 3.11997 0  2.62707 2.30841 0  4.07525 3.71451 0  0 0.3125 0  1.84288 1.37906 0  0.338756 2.30718 0  1.11043 3.92026 0  3.875 5 0  4.625 0 0  3.125 0 0  2.375 0 0  3.875 0 0  2.73745 3.08189 0  3.16133 2.87617 0  2.27366 0.75 0  1.07535 1.05692 0  1.47506 2.86677 0  3.1533 1.60423 0  3.51697 1.50038 0  5 4.6875 0  3.36329 3.47859 0  0.760537 2.76554 0  0.924224 2.09284 0  0.8843490000000001 4.20969 0  5 3.4375 0  0.751738 3.48196 0  4.62588 3.17569 0  0.8562920000000001 0.743573 0  3.80901 1.70295 0  4.14428 1.57633 0  2.21408 2.02987 0  3.26519 4.12988 0  0.8733340000000001 1.35648 0  4.67829 4.21875 0  0.351651 1.20967 0  1.36088 1.72105 0  1.13533 2.37544 0  2.7871 3.42618 0  4.24728 3.0157 0  3.3125 0.284345 0  2.85443 0.339122 0  3.27048 0.888925 0  2.31946 4.65103 0  2.21209 2.77593 0  1.9184 2.49647 0  3.23141 2.18163 0  3.73858 2.02814 0  1.90233 3.24872 0  3.6875 4.70869 0  5 0.3125 0  2.46465 3.39713 0  2.67034 4.02308 0  2.32769 3.92854 0  4.67668 3.51217 0  2.94035 0.845732 0  3.57649 4.01044 0  0.278151 4.53125 0  4.56284 1.25163 0  3.92999 1.0348 0  1.79889 3.55121 0  4.65987 1.86417 0  4.66313 2.50619 0  2 0.25 0  0 0.9375 0  0 4.0625 0  0.469625 3.125 0  0 2.1875 0  0 2.8125 0  0 3.4375 0  0 1.5625 0  5 2.1875 0  5 2.8125 0  5 0.9375 0  5 1.5625 0  2.93817 1.16066 0  0.686503 4.70924 0  2.93975 4.74638 0  4.73495 4.53125 0  2.29886 1.05236 0  2.79794 1.76028 0  4.36692 1.94711 0  0.332556 0.28834 0  0.301606 3.72522 0  1.60576 2.03197 0  0.25 5 0  3.82233 0.758647 0  2.85806 3.79225 0  3.40387 2.41625 0  2.29781 0.290467 0  0.714199 0.261603 0  0.2633 2.01747 0  0.279349 0.577023 0  0.620175 4.11058 0  4.27579 2.21076 0  3.98507 2.29468 0  3.83529 0.285238 0  1.5853 1.22964 0  3.76904 2.62733 0  2.78062 0.612231 0  3.88924 3.50543 0  0.601502 1.32213 0  3.48891 0.725934 0  3.61279 1.24309 0  1.34403 1.10283 0  4.28917 3.907 0  2.5625 0.205316 0  0.819697 4.47304 0  4.782 1.40625 0  0.593216 0.79963 0  3.39969 3.00346 0  3.09771 3.51388 0  3.4197 3.73958 0  3.01907 4.00596 0  2.84464 2.48579 0  4.20528 2.75141 0  1.54762 1.52686 0  1.0934 1.51159 0  3.49515 2.13842 0  2.54252 0.750382 0  4.77607 0.46875 0  3.57393 0.263618 0  2.89081 2.85834 0  2.48254 2.07726 0  0.209023 1.71875 0  0.64171 1.7235 0  4.76139 2.94099 0  0.550108 3.64709 0  1.93029 1.89601 0  3.41776 4.74107 0  0.426726 4.74781 0  1.39333 2.31284 0  1.13715 1.85862 0  0.554907 2.60969 0  1.36069 2.63467 0  0.936966 2.54296 0  0.959174 2.92981 0  3.84736 4.34169 0  0.264841 2.5713 0  0.949809 3.32302 0  0.910609 3.68013 0  1.30573 3.352 0  4.4375 0 0  4.28049 0.569208 0  4.33296 0.245366 0  4.50486 0.698088 0  3.64296 3.44371 0  3.81202 3.05963 0  0.330298 4.28163 0  4.33875 0.930374 0  4.76285 0.732155 0  4.80149 1.09375 0  0.197704 3.28125 0  0.197704 2.96875 0  2.09172 3.06627 0  1.752 2.68687 0  1.66859 3.0427 0  2.52459 4.79729 0  0.809017 0.495579 0  0.75 5 0  2.4584 2.85629 0  2.43476 2.60346 0  0.75 0 0  2 3.74727 0  0.875 0 0  2 3.87364 0  0.9375 0 0  2 3.93682 0  0.96875 0 0  2 3.96841 0  0.984375 0 0  2 3.9842 0  0.992188 0 0  2 3.9921 0  0.996094 0 0  2 3.99605 0  0.998047 0 0  2 3.99803 0  0.999023 0 0  2 3.99901 0  0.999512 0 0  2.17146 3.99916 0  2 4.25 0  2 3.99951 0  2.08573 3.99941 0  0.999756 0 0  2.04286 3.99926 0  2 3.99975 0  2.02143 3.9997 0  0.999878 0 0  1.00008 0.00872885 0  2.01071 3.99963 0  1.00004 0.00436575 0  1.99127 4.00008 0  2 3.99988 0  2.00536 3.99985 0  1.99563 4.00004 0  2 4.125 0  0.999939 0 0  1.00002 0.0021842 0  2.00268 3.99981 0  1.00001 0.00109343 0  1.99781 4.00002 0  2 3.99994 0  2.00134 3.99993 0  2 4.0625 0  2 4.03125 0  1.99891 4.00001 0  1.38112 3.90615 0  1.73077 3.78559 0  1.07705 0.816557 0  1.10768 4.15322 0  1.98937 1.21769 0  2 4.01562 0  1.78106 1.1813 0  0.999969 0 0  1 0.000548041 0  1.24057 0.92127 0  0.9849909999999999 4.37801 0  2.00067 3.99991 0  0.977857 0.602091 0  1.56582 3.89779 0  1.27883 4.06016 0  0.864897 4.66377 0  0.834969 4.84662 0  0.87402 0.333534 0  1.51358 1.06735 0  0.850143 0.17185 0  1 0.000275347 0  1.99945 4 0  0.948691 4.54288 0  0.950538 0.456322 0  1.65598 1.09111 0  1.85068 3.86582 0  1.3854 0.964727 0  1.10936 4.29156 0  2 3.99997 0  2.00034 3.99996 0  2 4.00781 0  2 4.00391 0  1.99972 4 0  1.0897 0.67359 0  1.47748 3.99626 0  1.69811 3.91142 0  0.875 5 0  1.89207 1.12087 0  1.19821 0.787925 0  1.22689 4.18532 0  1.38766 4.07486 0  0.917196 4.75995 0  2 4.00195 0  1.76094 1.07833 0  1.02938 4.473 0  1.32983 0.873387 0  0.999985 0 0  1 
[...]
<PointData  Vectors="f_16-0"> 
<DataArray  type="Float64"  Name="f_16-0"  NumberOfComponents="3" format="ascii">0.0000000000000000e+00 0.0000000000000000e+00 0.0000000000000000e+00  0.0000000000000000e+00 0.0000000000000000e+00 0.0000000000000000e+00  0.0000000000000000e+00 0.0000000000000000e+00 0.0000000000000000e+00  0.0000000000000000e+00 0.0000000000000000e+00 0.0000000000000000e+00  0.0000000000000000e+00 0.0000000000000000e+00 0.0000000000000000e+00  0.0000000000000000e+00 0.0000000000000000e+00 0.0000000000000000e+00  0.0000000000000000e+00 0.0000000000000000e+00 0.0000000000000000e+00  0.0000000000000000e+00 0.0000000000000000e+00 0.0000000000000000e+00  0.0000000000000000e+00 0.0000000000000000e+00 0.0000000000000000e+00  0.0000000000000000e+00 0.0000000000000000e+00 0.0000000000000000e+00  0.0000000000000000e+00 0.0000000000000000e+00 0.0000000000000000e+00  0.0000000000000000e+00 0.0000000000000000e+00 0.0000000000000000e+00  0.0000000000000000e+00 0.0000000000000000e+00 0.0000000000000000e+00  0.0000000000000000e+00 0.0000000000000000e+00 0.0000000000000000e+00  0.0000000000000000e+00 0.0000000000000000e+00 0.0000000000000000e+00  0.0000000000000000e+00 0.0000000000000000e+00 0.0000000000000000e+00  0.0000000000000000e+00 0.0000000000000000e+00 0.0000000000000000e+00  0.0000000000000000e+00 0.0000000000000000e+00 0.0000000000000000e+00  0.0000000000000000e+00 0.0000000000000000e+00 0.0000000000000000e+00  0.0000000000000000e+00 0.0000000000000000e+00 0.0000000000000000e+00  0.0000000000000000e+00 0.0000000000000000e+00 0.0000000000000000e+00  0.0000000000000000e+00 0.0000000000000000e+00 0.0000000000000000e+00  0.0000000000000000e+00 0.0000000000000000e+00 0.0000000000000000e+00  0.0000000000000000e+00 0.0000000000000000e+00 0.0000000000000000e+00  0.0000000000000000e+00 0.0000000000000000e+00 0.0000000000000000e+00  0.0000000000000000e+00 0.0000000000000000e+00 0.0000000000000000e+00  0.0000000000000000e+00 0.0000000000000000e+00 0.0000000000000000e+00  0.0000000000000000e+00 0.0000000000000000e+00 0.0000000000000000e+00  0.0000000000000000e+00 0.0000000000000000e+00 0.0000000000000000e+00  0.0000000000000000e+00 0.0000000000000000e+00 0.0000000000000000e+00  0.0000000000000000e+00 0.0000000000000000e+00 0.0000000000000000e+00  0.0000000000000000e+00 0.0000000000000000e+00 0.0000000000000000e+00  0.0000000000000000e+00 0.0000000000000000e+00 0.0000000000000000e+00  0.0000000000000000e+00 0.0000000000000000e+00 0.0000000000000000e+00  0.0000000000000000e+00 0.0000000000000000e+00 0.0000000000000000e+00  0.0000000000000000e+00 0.0000000000000000e+00 0.0000000000000000e+00  0.0000000000000000e+00 0.0000000000000000e+00 0.0000000000000000e+00  0.0000000000000000e+00 0.0000000000000000e+00 0.0000000000000000e+00  0.0000000000000000e+00 0.0000000000000000e+00 0.0000000000000000e+00  0.0000000000000000e+00 0.0000000000000000e+00 0.0000000000000000e+00  0.0000000000000000e+00 0.0000000000000000e+00 0.0000000000000000e+00  0.0000000000000000e+00 0.0000000000000000e+00 0.0000000000000000e+00  0.0000000000000000e+00 0.0000000000000000e+00 0.0000000000000000e+00  0.0000000000000000e+00 0.0000000000000000e+00 0.0000000000000000e+00  0.0000000000000000e+00 0.0000000000000000e+00 0.0000000000000000e+00  0.0000000000000000e+00 0.0000000000000000e+00 0.0000000000000000e+00  0.0000000000000000e+00 0.0000000000000000e+00 0.0000000000000000e+00  -nan -nan 0.0000000000000000e+00  0.0000000000000000e+00 0.0000000000000000e+00 0.0000000000000000e+00  -nan -nan 0.0000000000000000e+00  -nan -nan 0.0000000000000000e+00  -nan -nan 0.0000000000000000e+00  -nan -nan 0.0000000000000000e+00  -nan -nan 0.0000000000000000e+00  -nan -nan 0.0000000000000000e+00  -nan -nan 0.0000000000000000e+00  0.0000000000000000e+00 0.0000000000000000e+00 0.0000000000000000e+00  -nan -nan 0.0000000000000000e+00  -nan -nan 0.0000000000000000e+00  0.0000000000000000e+00 0.0000000000000000e+00 0.0000000000000000e+00  -nan -nan 0.0000000000000000e+00  -nan -nan 0.0000000000000000e+00  -nan -nan 0.0000000000000000e+00  -nan -nan 0.0000000000000000e+00  -nan -nan 0.0000000000000000e+00  -nan -nan 0.0000000000000000e+00  0.0000000000000000e+00 0.0000000000000000e+00 0.0000000000000000e+00  -nan -nan 0.0000000000000000e+00  -nan -nan 0.0000000000000000e+00  -nan -nan 0.0000000000000000e+00  -nan -nan 0.0000000000000000e+00  -nan -nan 0.0000000000000000e+00  -nan -nan 0.0000000000000000e+00  -nan -nan 0.0000000000000000e+00  -nan -nan 0.0000000000000000e+00  0.0000000000000000e+00 0.0000000000000000e+00 0.0000000000000000e+00  -nan -nan 0.0000000000000000e+00  -nan -nan 0.0000000000000000e+00  -nan -nan 0.0000000000000000e+00  -nan -nan 0.0000000000000000e+00  -nan -nan 0.0000000000000000e+00  -nan -nan 0.0000000000000000e+00  -nan -nan 0.0000000000000000e+00  0.0000000000000000e+00 0.0000000000000000e+00 0.0000000000000000e+00  0.0000000000000000e+00 0.0000000000000000e+00 0.0000000000000000e+00  0.0000000000000000e+00 0.0000000000000000e+00 0.0000000000000000e+00  0.0000000000000000e+00 0.0000000000000000e+00 0.0000000000000000e+00  0.0000000000000000e+00 0.0000000000000000e+00 0.0000000000000000e+00  0.0000000000000000e+00 0.0000000000000000e+00 0.0000000000000000e+00  0.0000000000000000e+00 0.0000000000000000e+00 0.0000000000000000e+00  0.0000000000000000e+00 0.0000000000000000e+00 0.0000000000000000e+00  0.0000000000000000e+00 0.0000000000000000e+00 0.0000000000000000e+00  0.0000000000000000e+00 0.0000000000000000e+00 0.0000000000000000e+00  0.0000000000000000e+00 0.0000000000000000e+00 0.0000000000000000e+00  0.0000000000000000e+00 0.0000000000000000e+00 0.0000000000000000e+00  0.0000000000000000e+00 0.0000000000000000e+00 0.0000000000000000e+00  0.0000000000000000e+00 0.0000000000000000e+00 0.0000000000000000e+00  0.0000000000000000e+00 0.0000000000000000e+00 0.0000000000000000e+00  -nan -nan 0.0000000000000000e+00  -nan -nan 0.0000000000000000e+00  0.0000000000000000e+00 0.0000000000000000e+00 0.0000000000000000e+00  0.0000000000000000e+00 0.0000000000000000e+00 0.0000000000000000e+00  0.0000000000000000e+00 0.0000000000000000e+00 0.0000000000000000e+00  0.0000000000000000e+00 0.0000000000000000e+00 0.0000000000000000e+00  0.0000000000000000e+00 0.0000000000000000e+00 0.0000000000000000e+00  0.0000000000000000e+00 0.0000000000000000e+00 0.0000000000000000e+00  0.0000000000000000e+00 0.0000000000000000e+00 0.0000000000000000e+00  0.0000000000000000e+00 0.0000000000000000e+00 0.0000000000000000e+00  0.0000000000000000e+00 0.0000000000000000e+00 0.0000000000000000e+00  0.0000000000000000e+00 0.0000000000000000e+00 0.0000000000000000e+00  0.0000000000000000e+00 0.0000000000000000e+00 0.0000000000000000e+00  0.0000000000000000e+00 0.0000000000000000e+00 0.0000000000000000e+00  0.0000000000000000e+00 0.0000000000000000e+00 0.0000000000000000e+00  0.0000000000000000e+00 0.0000000000000000e+00 0.0000000000000000e+00  0.0000000000000000e+00 0.0000000000000000e+00 0.0000000000000000e+00  0.0000000000000000e+00 0.0000000000000000e+00 0.0000000000000000e+00  0.0000000000000000e+00 0.0000000000000000e+00 0.0000000000000000e+00  0.0000000000000000e+00 0.0000000000000000e+00 0.0000000000000000e+00  0.0000000000000000e+00 0.0000000000000000e+00 0.0000000000000000e+00  0.0000000000000000e+00 0.0000000000000000e+00 0.0000000000000000e+00  0.0000000000000000e+00 0.0000000000000000e+00 0.0000000000000000e+00  0.0000000000000000e+00 0.0000000000000000e+00 0.0000000000000000e+00  0.0000000000000000e+00 0.0000000000000000e+00 0.0000000000000000e+00  0.0000000000000000e+00 0.0000000000000000e+00 0.0000000000000000e+00  0.0000000000000000e+00 0.0000000000000000e+00 0.0000000000000000e+00  0.0000000000000000e+00 0.0000000000000000e+00 0.0000000000000000e+00  0.0000000000000000e+00 0.0000000000000000e+00 0.0000000000000000e+00  0.0000000000000000e+00 0.0000000000000000e+00 0.0000000000000000e+00  0.0000000000000000e+00 0.0000000000000000e+00 0.0000000000000000e+00  0.0000000000000000e+00 0.0000000000000000e+00 0.0000000000000000e+00  0.0000000000000000e+00 0.0000000000000000e+00 0.0000000000000000e+00  0.0000000000000000e+00 0.0000000000000000e+00 0.0000000000000000e+00  0.0000000000000000e+00 0.0000000000000000e+00 0.0000000000000000e+00  0.0000000000000000e+00 0.0000000000000000e+00 0.0000000000000000e+00  0.0000000000000000e+00 0.0000000000000000e+00 0.0000000000000000e+00  0.0000000000000000e+00 0.0000000000000000e+00 0.0000000000000000e+00  0.0000000000000000e+00 0.0000000000000000e+00 0.0000000000000000e+00  0.0000000000000000e+00 0.0000000000000000e+00 0.0000000000000000e+00  0.0000000000000000e+00 0.0000000000000000e+00 0.0000000000000000e+00  0.0000000000000000e+00 0.0000000000000000e+00 0.0000000000000000e+00  0.0000000000000000e+00 0.0000000000000000e+00 0.0000000000000000e+00  0.0000000000000000e+00 0.0000000000000000e+00 0.0000000000000000e+00  0.0000000000000000e+00 0.0000000000000000e+00 0.0000000000000000e+00  0.0000000000000000e+00 0.0000000000000000e+00 0.0000000000000000e+00  0.0000000000000000e+00 0.0000000000000000e+00 0.0000000000000000e+00  0.0000000000000000e+00 0.0000000000000000e+00 0.0000000000000000e+00  0.0000000000000000e+00 0.0000000000000000e+00 0.0000000000000000e+00  0.0000000000000000e+00 0.0000000000000000e+00 0.0000000000000000e+00  0.0000000000000000e+00 0.0000000000000000e+00 0.0000000000000000e+00  0.0000000000000000e+00 0.0000000000000000e+00 0.0000000000000000e+00  0.0000000000000000e+00 0.0000000000000000e+00 0.0000000000000000e+00  0.0000000000000000e+00 0.0000000000000000e+00 0.0000000000000000e+00  0.0000000000000000e+00 0.0000000000000000e+00 0.0000000000000000e+00  0.0000000000000000e+00 0.0000000000000000e+00 0.0000000000000000e+00  0.0000000000000000e+00 0.0000000000000000e+00 0.0000000000000000e+00  0.0000000000000000e+00 0.0000000000000000e+00 0.0000000000000000e+00  0.0000000000000000e+00 0.0000000000000000e+00 0.0000000000000000e+00  0.0000000000000000e+00 0.0000000000000000e+00 0.0000000000000000e+00  0.0000000000000000e+00 0.0000000000000000e+00 0.0000000000000000e+00  0.0000000000000000e+00 0.0000000000000000e+00 0.0000000000000000e+00  0.0000000000000000e+00 0.0000000000000000e+00 0.0000000000000000e+00  0.0000000000000000e+00 0.0000000000000000e+00 0.0000000000000000e+00  0.0000000000000000e+00 0.0000000000000000e+00 0.0000000000000000e+00  0.0000000000000000e+00 0.0000000000000000e+00 0.0000000000000000e+00  0.0000000000000000e+00 0.0000000000000000e+00 0.0000000000000000e+00  0.0000000000000000e+00 0.0000000000000000e+00 0.0000000000000000e+00  0.0000000000000000e+00 0.0000000000000000e+00 0.0000000000000000e+00  0.0000000000000000e+00 0.0000000000000000e+00 0.0000000000000000e+00  0.0000000000000000e+00 0.0000000000000000e+00 0.0000000000000000e+00  0.0000000000000000e+00 0.0000000000000000e+00 0.0000000000000000e+00  0.0000000000000000e+00 0.0000000000000000e+00 0.0000000000000000e+00  0.0000000000000000e+00 0.0000000000000000e+00 0.0000000000000000e+00  0.0000000000000000e+00 0.0000000000000000e+00 0.0000000000000000e+00  0.0000000000000000e+00 0.0000000000000000e+00 0.0000000000000000e+00  0.0000000000000000e+00 0.0000000000000000e+00 0.0000000000000000e+00  0.0000000000000000e+00 0.0000000000000000e+00 0.0000000000000000e+00  0.0000000000000000e+00 0.0000000000000000e+00 0.0000000000000000e+00  0.0000000000000000e+00 0.0000000000000000e+00 0.0000000000000000e+00  0.0000000000000000e+00 0.0000000000000000e+00 0.0000000000000000e+00  0.0000000000000000e+00 0.0000000000000000e+00 0.0000000000000000e+00  0.0000000000000000e+00 0.0000000000000000e+00 0.0000000000000000e+00  0.0000000000000000e+00 0.0000000000000000e+00 0.0000000000000000e+00  0.0000000000000000e+00 0.0000000000000000e+00 0.0000000000000000e+00  0.0000000000000000e+00 0.0000000000000000e+00 0.0000000000000000e+00  0.0000000000000000e+00 0.0000000000000000e+00 0.0000000000000000e+00  0.0000000000000000e+00 0.0000000000000000e+00 0.0000000000000000e+00  0.0000000000000000e+00 0.0000000000000000e+00 0.0000000000000000e+00  0.0000000000000000e+00 0.0000000000000000e+00 0.0000000000000000e+00  0.0000000000000000e+00 0.0000000000000000e+00 0.0000000000000000e+00  0.0000000000000000e+00 0.0000000000000000e+00 0.0000000000000000e+00  -nan -nan 0.0000000000000000e+00  -nan -nan 0.0000000000000000e+00  -nan -nan 0.0000000000000000e+00  0.0000000000000000e+00 0.0000000000000000e+00 0.0000000000000000e+00  -nan -nan 0.0000000000000000e+00  0.0000000000000000e+00 0.0000000000000000e+00 0.0000000000000000e+00  -nan -nan 0.0000000000000000e+00  -nan -nan 0.0000000000000000e+00  -nan -nan 0.0000000000000000e+00  -nan -nan 0.0000000000000000e+00  -nan -nan 0.0000000000000000e+00  -nan -nan 0.0000000000000000e+00  -nan -nan 0.0000000000000000e+00  -nan -nan 0.0000000000000000e+00  -nan -nan 0.0000000000000000e+00  -nan -nan 0.0000000000000000e+00  -nan -nan 0.0000000000000000e+00  -nan -nan 0.0000000000000000e+00  0.0000000000000000e+00 0.0000000000000000e+00 0.0000000000000000e+00  -nan -nan 0.0000000000000000e+00  -nan -nan 0.0000000000000000e+00  0.0000000000000000e+00 0.0000000000000000e+00 0.0000000000000000e+00  -nan -nan 0.0000000000000000e+00  -nan -nan 0.0000000000000000e+00  0.0000000000000000e+00 0.0000000000000000e+00 0.0000000000000000e+00  0.0000000000000000e+00 0.0000000000000000e+00 0.0000000000000000e+00  -nan -nan 0.0000000000000000e+00  -nan -nan 0.0000000000000000e+00  -nan -nan 0.0000000000000000e+00  -nan -nan 0.0000000000000000e+00  -nan -nan 0.0000000000000000e+00  -nan -nan 0.0000000000000000e+00  -nan -nan 0.0000000000000000e+00  -nan -nan 0.0000000000000000e+00  -nan -nan 0.0000000000000000e+00  -nan -nan 0.0000000000000000e+00  -nan -nan 0.0000000000000000e+00  -nan -nan 0.0000000000000000e+00  -nan -nan 0.0000000000000000e+00  -nan -nan 0.0000000000000000e+00  -nan -nan 0.0000000000000000e+00  -nan -nan 0.0000000000000000e+00  -nan -nan 0.0000000000000000e+00  -nan -nan 0.0000000000000000e+00  -nan -nan 0.0000000000000000e+00  -nan -nan 0.0000000000000000e+00  0.0000000000000000e+00 0.0000000000000000e+00 0.0000000000000000e+00  0.0000000000000000e+00 0.0000000000000000e+00 0.0000000000000000e+00  -nan -nan 0.0000000000000000e+00  -nan -nan 0.0000000000000000e+00  -nan -nan 0.0000000000000000e+00  0.0000000000000000e+00 0.0000000000000000e+00 0.0000000000000000e+00  -nan -nan 0.0000000000000000e+00  -nan -nan 0.0000000000000000e+00  -nan -nan 0.0000000000000000e+00  -nan -nan 0.0000000000000000e+00  -nan -nan 0.0000000000000000e+00  -nan -nan 0.0000000000000000e+00  -nan -nan 0.0000000000000000e+00  -nan -nan 0.0000000000000000e+00  -nan -nan 0.0000000000000000e+00  -nan -nan 0.0000000000000000e+00  -nan -nan 0.0000000000000000e+00  -nan -nan 0.0000000000000000e+00  -nan -nan 0.0000000000000000e+00  0.0000000000000000e+00 0.0000000000000000e+00 0.0000000000000000e+00  -nan -nan 0.0000000000000000e+00  -nan -nan 0.0000000000000000e+00  -nan -nan 0.0000000000000000e+00  0.0000000000000000e+00 0.0000000000000000e+00 0.0000000000000000e+00  -nan -nan 0.0000000000000000e+00  -nan -nan 0.0000000000000000e+00  -nan -nan 0.0000000000000000e+00  -nan -nan 0.0000000000000000e+00  0.0000000000000000e+00 0.0000000000000000e+00 0.0000000000000000e+00  -nan -nan 0.0000000000000000e+00  -nan -nan 0.0000000000000000e+00  -nan -nan 0.0000000000000000e+00  -nan -nan 0.0000000000000000e+00  -nan -nan 0.0000000000000000e+00  0.0000000000000000e+00 0.0000000000000000e+00 0.0000000000000000e+00  -nan -nan 0.0000000000000000e+00  -nan -nan 0.0000000000000000e+00  -nan -nan 0.0000000000000000e+00  -nan -nan 0.0000000000000000e+00  -nan -nan 0.0000000000000000e+00  -nan -nan 0.0000000000000000e+00  -nan -nan 0.0000000000000000e+00  -nan -nan 0.0000000000000000e+00  -nan -nan 0.0000000000000000e+00  -nan -nan 0.0000000000000000e+00  -nan -nan 0.0000000000000000e+00  -nan -nan 0.0000000000000000e+00  -nan -nan 0.0000000000000000e+00  -nan -nan 0.0000000000000000e+00  -nan -nan 0.0000000000000000e+00  -nan -nan 0.0000000000000000e+00  -nan -nan 0.0000000000000000e+00  -nan -nan 0.0000000000000000e+00  -nan -nan 0.0000000000000000e+00  -nan -nan 0.0000000000000000e+00  -nan -nan 0.0000000000000000e+00  -nan -nan 0.0000000000000000e+00  -nan -nan 0.0000000000000000e+00  -nan -nan 0.0000000000000000e+00  -nan -nan 0.0000000000000000e+00  -nan -nan 0.0000000000000000e+00  0.0000000000000000e+00 0.0000000000000000e+00 0.0000000000000000e+00  0.0000000000000000e+00 0.0000000000000000e+00 0.0000000000000000e+00  0.0000000000000000e+00 0.0000000000000000e+00 0.0000000000000000e+00  0.0000000000000000e+00 0.0000000000000000e+00 0.0000000000000000e+00  0.0000000000000000e+00 0.0000000000000000e+00 0.0000000000000000e+00  -nan -nan 0.0000000000000000e+00  -nan -nan 0.0000000000000000e+00  -nan -nan 0.0000000000000000e+00  -nan -nan 0.0000000000000000e+00  -nan -nan 0.0000000000000000e+00  -nan -nan 0.0000000000000000e+00  -nan -nan 0.0000000000000000e+00  -nan -nan 0.0000000000000000e+00  -nan -nan 0.0000000000000000e+00  -nan -nan 0.0000000000000000e+00  -nan -nan 0.0000000000000000e+00  -nan -nan 0.0000000000000000e+00  -nan -nan 0.0000000000000000e+00  -nan -nan 0.0000000000000000e+00  -nan -nan 0.0000000000000000e+00  -nan -nan 0.0000000000000000e+00  -nan -nan 0.0000000000000000e+00  -nan -nan 0.0000000000000000e+00  -nan -nan 0.0000000000000000e+00  -nan -nan 0.0000000000000000e+00  -nan -nan 0.0000000000000000e+00  -nan -nan 0.0000000000000000e+00  -nan -nan 0.0000000000000000e+00  -nan -nan 0.0000000000000000e+00  -nan -nan 0.0000000000000000e+00  -nan -nan 0.0000000000000000e+00  -nan -nan 0.0000000000000000e+00  -nan -nan 0.0000000000000000e+00  -nan -nan 0.0000000000000000e+00  -nan -nan 0.0000000000000000e+00  -nan -nan 0.0000000000000000e+00  -nan -nan 0.0000000000000000e+00  -nan -nan 0.0000000000000000e+00  -nan -nan 0.0000000000000000e+00  -nan -nan 0.0000000000000000e+00  -nan -nan 0.0000000000000000e+00  -nan -nan 0.0000000000000000e+00  -nan -nan 0.0000000000000000e+00  -nan -nan 0.0000000000000000e+00  -nan -nan 0.0000000000000000e+00  -nan -nan 0.0000000000000000e+00  -nan -nan 0.0000000000000000e+00  -nan -nan 0.0000000000000000e+00  -nan -nan 0.0000000000000000e+00  -nan -nan 0.0000000000000000e+00  -nan -nan 0.0000000000000000e+00  -nan -nan 0.0000000000000000e+00  -nan -nan 0.0000000000000000e+00  -nan -nan 0.0000000000000000e+00  -nan -nan 0.0000000000000000e+00  0.0000000000000000e+00 0.0000000000000000e+00 0.0000000000000000e+00  -nan -nan 0.0000000000000000e+00  -nan -nan 0.0000000000000000e+00  -nan -nan 0.0000000000000000e+00  -nan -nan 0.0000000000000000e+00  -nan -nan 0.0000000000000000e+00  -nan -nan 0.0000000000000000e+00  -nan -nan 0.0000000000000000e+00  -nan -nan 0.0000000000000000e+00  -nan -nan 0.0000000000000000e+00  -nan -nan 0.0000000000000000e+00  -nan -nan 0.0000000000000000e+00  -nan -nan 0.0000000000000000e+00  -nan -nan 0.0000000000000000e+00  -nan -nan 0.0000000000000000e+00  -nan -nan 0.0000000000000000e+00  -nan -nan 0.0000000000000000e+00  -nan -nan 0.0000000000000000e+00  -nan -nan 0.0000000000000000e+00  -nan -nan 0.0000000000000000e+00  -nan -nan 0.0000000000000000e+00  -nan -nan 0.0000000000000000e+00  0.0000000000000000e+00 0.0000000000000000e+00 0.0000000000000000e+00  -nan -nan 0.0000000000000000e+00  -nan -nan 0.0000000000000000e+00  -nan -nan 0.0000000000000000e+00  -nan -nan 0.0000000000000000e+00  -nan -nan 0.0000000000000000e+00  -nan -nan 0.0000000000000000e+00  -nan -nan 0.0000000000000000e+00  -nan -nan 0.0000000000000000e+00  -nan -nan 0.0000000000000000e+00  -nan -nan 0.0000000000000000e+00  -nan -nan 0.0000000000000000e+00  -nan -nan 0.0000000000000000e+00  -nan -nan 0.0000000000000000e+00  -nan -nan 0.0000000000000000e+00  -nan -nan 0.0000000000000000e+00  -nan -nan 0.0000000000000000e+00  -nan -nan 0.0000000000000000e+00  -nan -nan 0.0000000000000000e+00  -nan -nan 0.0000000000000000e+00  -nan -nan 0.0000000000000000e+00  -nan -nan 0.0000000000000000e+00  -nan -nan 0.0000000000000000e+00  -nan -nan 0.000000