<?xml version="1.0"?>
<VTKFile type="UnstructuredGrid"  version="0.1"  >
<UnstructuredGrid>
<Piece  NumberOfPoints="1944" NumberOfCells="3485">
<Points>
<DataArray  type="Float64"  NumberOfComponents="3"  format="ascii">0 10 0  0 0 0  4 0 0  4 1.06144e-05 0  4.00107 0.0698202 0  4.00426 0.139608 0  4.00959 0.209354 0  4.01705 0.279036 0  4.02664 0.348633 0  4.03835 0.418124 0  4.05218 0.487487 0  4.06813 0.556702 0  4.08618 0.625748 0  4.10635 0.694603 0  4.12861 0.763246 0  4.15297 0.831656 0  4.17941 0.899814 0  4.20793 0.967697 0  4.23852 1.03529 0  4.27117 1.10256 0  4.30587 1.1695 0  4.34261 1.23608 0  4.38138 1.30228 0  4.42216 1.36809 0  4.46494 1.43348 0  4.50972 1.49844 0  4.55647 1.56293 0  4.60519 1.62695 0  4.65585 1.69048 0  4.70845 1.75349 0  4.76296 1.81597 0  4.81937 1.87789 0  4.87767 1.93925 0  4.93783 2.00001 0  4.99984 2.06016 0  5.06367 2.11968 0  5.12931 2.17856 0  5.19675 2.23678 0  5.26594 2.29431 0  5.33689 2.35115 0  5.40956 2.40727 0  5.48393 2.46265 0  5.55999 2.51729 0  5.6377 2.57116 0  5.71704 2.62424 0  5.798 2.67653 0  5.88053 2.728 0  5.96463 2.77864 0  6.05026 2.82843 0  6.1374 2.87736 0  6.22602 2.92542 0  6.3161 2.97258 0  6.4076 3.01884 0  6.5005 3.06418 0  6.59477 3.10859 0  6.69038 3.15205 0  6.78731 3.19455 0  6.88551 3.23607 0  6.98498 3.27661 0  7.08566 3.31615 0  7.18754 3.35469 0  7.29058 3.3922 0  7.39474 3.42867 0  7.50001 3.46411 0  7.60634 3.49848 0  7.71371 3.53179 0  7.82208 3.56403 0  7.93141 3.59518 0  8.041679999999999 3.62523 0  8.152850000000001 3.65418 0  8.264889999999999 3.68202 0  8.37776 3.70874 0  8.491440000000001 3.73432 0  8.605869999999999 3.75877 0  8.721030000000001 3.78208 0  8.83689 3.80423 0  8.95341 3.82522 0  9.070550000000001 3.84505 0  9.188280000000001 3.8637 0  9.306559999999999 3.88118 0  9.42535 3.89748 0  9.54463 3.91259 0  9.664350000000001 3.92651 0  9.784470000000001 3.93923 0  9.90497 3.95075 0  10.0258 3.96107 0  10.1469 3.97019 0  10.2683 3.97809 0  10.3899 3.98478 0  10.5117 3.99026 0  10.6337 3.99452 0  10.7557 3.99756 0  10.8778 3.99939 0  11 4 0  11 0 0  20 0 0  20 10 0  11 10 0  11 6 0  11 6 0  10.8778 6.00061 0  10.7557 6.00244 0  10.6336 6.00548 0  10.5117 6.00974 0  10.3899 6.01522 0  10.2683 6.02191 0  10.1469 6.02982 0  10.0258 6.03893 0  9.90493 6.04925 0  9.78444 6.06077 0  9.66431 6.07349 0  9.544589999999999 6.08741 0  9.425319999999999 6.10252 0  9.306520000000001 6.11882 0  9.18824 6.1363 0  9.070510000000001 6.15496 0  8.95337 6.17479 0  8.83686 6.19578 0  8.721 6.21793 0  8.605829999999999 6.24123 0  8.491400000000001 6.26568 0  8.37773 6.29127 0  8.264860000000001 6.31799 0  8.15282 6.34582 0  8.041650000000001 6.37477 0  7.93138 6.40483 0  7.82204 6.43598 0  7.71368 6.46822 0  7.60631 6.50153 0  7.49998 6.53591 0  7.39471 6.57134 0  7.29054 6.60782 0  7.18751 6.64533 0  7.08563 6.68386 0  6.98495 6.7234 0  6.88548 6.76394 0  6.78728 6.80547 0  6.69035 6.84797 0  6.59474 6.89142 0  6.50047 6.93583 0  6.40757 6.98117 0  6.31607 7.02743 0  6.22599 7.07459 0  6.13737 7.12265 0  6.05024 7.17158 0  5.96461 7.22138 0  5.88051 7.27202 0  5.79797 7.32349 0  5.71702 7.37577 0  5.63767 7.42886 0  5.55996 7.48273 0  5.48391 7.53736 0  5.40954 7.59275 0  5.33687 7.64887 0  5.26592 7.7057 0  5.19672 7.76324 0  5.12929 7.82145 0  5.06365 7.88033 0  4.99982 7.93986 0  4.93781 8.00001 0  4.87765 8.06077 0  4.81936 8.122120000000001 0  4.76294 8.184049999999999 0  4.70843 8.24653 0  4.65584 8.30954 0  4.60517 8.373060000000001 0  4.55646 8.43709 0  4.50971 8.501580000000001 0  4.46493 8.56654 0  4.42214 8.631930000000001 0  4.38136 8.69774 0  4.3426 8.76394 0  4.30586 8.83052 0  4.27116 8.897460000000001 0  4.23851 8.964729999999999 0  4.20793 9.03232 0  4.17941 9.100210000000001 0  4.15296 9.16836 0  4.12861 9.23678 0  4.10634 9.30542 0  4.08618 9.374269999999999 0  4.06812 9.44332 0  4.05217 9.51253 0  4.03834 9.581899999999999 0  4.02664 9.651389999999999 0  4.01705 9.720980000000001 0  4.00959 9.79067 0  4.00426 9.86041 0  4.00107 9.930199999999999 0  4 10 0  20 5 0  0 5 0  15.5 0 0  15.5 10 0  15.4969 4.52778 0  17.4864 7.26277 0  20 2.5 0  13.9035 7.26479 0  13.4833 2.26252 0  3.26108 4.86962 0  0 2.5 0  0 7.5 0  17.75 0 0  17.3479 2.62438 0  20 7.5 0  13.1624 5.00102 0  2.43559 7.18289 0  2.3787 2.5889 0  17.7388 4.85621 0  17.75 10 0  13.25 10 0  13.25 0 0  2 10 0  2 0 0  11 2 0  11 8 0  5.45534 5 0  15.4579 1.99245 0  15.6954 8.05242 0  15.396 6.30137 0  4.03151 6.44847 0  1.60119 4.20076 0  20 6.25 0  18.6345 8.533519999999999 0  18.623 1.47676 0  3.88917 3.31557 0  0 6.25 0  20 3.75 0  0 1.25 0  1.36334 8.45933 0  12.5257 6.46267 0  14.375 10 0  1.56126 5.81973 0  7.05454 5 0  16.7756 1.1937 0  14.6273 3.27321 0  12.1498 3 0  12.125 10 0  12.644 8.39165 0  12.3361 1.23754 0  14.375 0 0  2.81459 8.58985 0  18.5111 3.5708 0  16.625 10 0  17.0145 8.61843 0  14.0128 8.654199999999999 0  16.8122 5.97555 0  1.48299 1.39778 0  2.84828 1.25764 0  18.4999 6.15254 0  16.0878 3.25071 0  14.45 5.3579 0  0 8.75 0  20 1.25 0  0 3.75 0  20 8.75 0  13.331 3.65902 0  8.32676 5 0  3.60482 7.62246 0  2.87458 6.03562 0  1.17701 7.02817 0  2.74646 3.75767 0  13.8125 1.08528 0  18.7975 7.33001 0  11.85 5 0  1.1891 2.55112 0  16.3237 7.05159 0  5.09952 3.76052 0  5.24319 6.21549 0  3.56145 2.18913 0  17.151 3.809 0  11 9 0  16.5944 4.85207 0  18.8858 4.67065 0  18.875 0 0  18.875 10 0  16.625 0 0  12.125 0 0  6.18013 4.14772 0  13.6278 6.15403 0  4.37578 4.6391 0  6.25494 5.76582 0  9.421150000000001 5 0  11.9965 7.46324 0  18.9004 2.54159 0  14.4715 4.30985 0  1 10 0  16.0625 9.095700000000001 0  14.9977 9.06044 0  1 0 0  3 10 0  12.0112 4.0017 0  10.5374 5 0  3 0 0  14.9406 0.984839 0  11 1 0  11 3 0  11 7 0  16.4038 2.30568 0  14.4388 1.89503 0  14.9678 7.27571 0  2.23323 5.02633 0  12.9621 7.47984 0  19.2311 5.55175 0  15.9701 5.55593 0  17.6473 1.67481 0  15.8832 0.868913 0  4.49651 5.59951 0  1.93805 3.3698 0  0.688097 4.375 0  0.89852 3.45205 0  14.7882 8.171340000000001 0  14.5106 6.24316 0  4.75942 6.96686 0  11.9348 2.08619 0  0.667675 5.625 0  0.692994 1.81059 0  11.7495 8.5 0  3.23506 6.83117 0  13.219 9.093360000000001 0  18.3125 0.663903 0  4.70212 2.97286 0  17.8012 8.13231 0  17.8636 9.068569999999999 0  19.3142 8.012790000000001 0  16.5465 7.88908 0  17.6882 5.75753 0  20 1.875 0  12.2837 9.16329 0  1.28107 5.00284 0  19.2219 0.819056 0  19.2305 9.18872 0  16.2233 4.08865 0  3.65073 5.68808 0  3.69129 4.13954 0  3.14951 2.91987 0  0.805063 7.80431 0  2.13448 8.01853 0  1.5 9.304740000000001 0  7.69065 4.42097 0  7.69065 5.57902 0  20 3.125 0  2.5 9.34848 0  17.5234 0.8689789999999999 0  1.87049 6.58337 0  11.6814 6.5 0  20 6.875 0  19.2085 6.5998 0  12.5057 5.58447 0  0 0.625 0  0.830296 0.840973 0  0 9.375 0  0.763825 8.989990000000001 0  6.25494 4.94566 0  13.401 8.14433 0  3.2939 9.23316 0  12.7351 1.94546 0  18.1114 2.34311 0  19.2824 3.4375 0  17.1875 10 0  13.0369 0.798845 0  6.94356 4.23916 0  15.1973 5.55459 0  18.452 5.34889 0  16.1245 1.59417 0  15.1 3.87425 0  14.8918 2.53505 0  13.8429 3.00831 0  12.5065 4.59388 0  12.9726 2.91335 0  2.86693 7.81039 0  17.8094 6.53992 0  2.11528 0.837147 0  3.60553 8.42948 0  11.712 5.74397 0  11.5625 0 0  11.5625 10 0  18.2339 4.27896 0  17.9476 3.07537 0  0.9879869999999999 6.30276 0  1.79907 2.09243 0  13.3074 6.82318 0  13.9051 4.82244 0  13.9091 9.40376 0  15.3564 3.18623 0  11.8438 0.684771 0  4.37321 3.86756 0  16.1464 6.32221 0  16.9874 6.70396 0  7.00289 5.90375 0  19.3969 4.1547 0  2.0457 8.75813 0  16.9062 9.333600000000001 0  19.2521 1.88145 0  11.6153 1.41585 0  3.58705 1.43078 0  3.32526 0.677211 0  11.5065 3.5 0  17.1175 5.33352 0  2.48517 1.87801 0  0 6.875 0  16.717 2.93572 0  1.47188 0.532832 0  17.0319 2.00277 0  14.1107 7.9475 0  11.1576 5.32013 0  4.08619 2.64735 0  13.2322 1.46327 0  1.50953 7.66472 0  18.3125 10 0  15.6152 6.97901 0  18.5391 9.218970000000001 0  2.67373 4.46639 0  15.7748 2.62072 0  12.6973 3.93114 0  5.79365 3.52482 0  13.783 5.49167 0  13.3985 4.34909 0  14.0476 3.69607 0  4.33617 7.56595 0  14.9624 4.92893 0  8.774509999999999 4.48432 0  8.87396 5.46264 0  2.25155 5.72311 0  11.1074 4.65665 0  2.80995 5.3598 0  18.1304 7.52136 0  0.5805090000000001 2.85216 0  5.93722 6.4135 0  11 2.5 0  16.2141 8.45613 0  11.6345 9.13936 0  5.03959 4.44854 0  13.1557 5.69406 0  12.6875 10 0  17.2037 7.8569 0  3.88468 5.07472 0  0.557804 7.1875 0  18.4101 6.80156 0  14.0951 2.42717 0  11.6219 2.64204 0  5.38144 6.83592 0  0.62714 4.99917 0  0 8.125 0  20 0.625 0  20 8.125 0  0 1.875 0  0 5.625 0  0 3.125 0  0 4.375 0  20 4.375 0  20 5.625 0  20 9.375 0  16.9473 0.565689 0  3.8245 7.03776 0  2.94845 2.32504 0  19.4612 2.8125 0  17.8724 3.72909 0  5.14635 5.57233 0  4.61511 6.21629 0  2.50466 6.5517 0  2.16002 3.94354 0  15.2954 8.521050000000001 0  2.58762 3.16541 0  3.30834 3.51213 0  5.31644 3.11327 0  14.3443 0.672494 0  13.8125 0 0  14.4046 1.28275 0  13.8127 1.71996 0  2.70679 0.655173 0  3.44036 6.2587 0  18.7125 7.93129 0  19.4285 7.20444 0  12.4599 0.537676 0  4.8 5.07357 0  18.0639 1.22463 0  12.5145 2.51268 0  4.15381 2.03891 0  9.911250000000001 4.58982 0  9.979290000000001 5.37058 0  15.5465 1.38373 0  14.98 1.61205 0  16.5822 3.60069 0  17.3583 3.23478 0  17.1679 4.48807 0  16.85 7.35998 0  1.77972 2.70162 0  8.298019999999999 5.68064 0  14.0241 6.64525 0  0.773348 8.39676 0  16.0448 7.57415 0  5.5703 4.14815 0  0.5 10 0  0.5 0 0  19.4107 8.6106 0  16.5458 5.45526 0  15.6798 3.69856 0  6.54835 6.2717 0  18.7917 4.08898 0  19.4712 4.73948 0  7.63612 5 0  1.39725 3.1451 0  6.61437 3.75499 0  17.465 9.49033 0  11 0.5 0  17.3218 6.23823 0  13.0635 6.26096 0  16.0605 4.63968 0  16.0625 0 0  16.3606 0.525338 0  0.478715 6.5625 0  14.4089 9.090949999999999 0  1.25372 1.92134 0  1.73821 7.14013 0  14.9375 0 0  14.5845 6.82793 0  15.3689 0.576785 0  12.1216 6.88916 0  12.1485 8.04724 0  11.5774 7.94619 0  15.5845 5.11044 0  4.08371 8.093209999999999 0  19.4375 0 0  14.9375 10 0  11.5728 7.06633 0  5.7273 5.51639 0  13.8125 10 0  18.3125 0 0  17.
[...]
<PointData  Scalars="f_16-1"> 
<DataArray  type="Float64"  Name="f_16-1"  format="ascii">-nan  -nan  -nan  -nan  -nan  -nan  -nan  -nan  -nan  -nan  -nan  -nan  -nan  -nan  -nan  -nan  -nan  -nan  -nan  -nan  -nan  -nan  -nan  -nan  -nan  -nan  -nan  -nan  -nan  -nan  -nan  -nan  -nan  -nan  -nan  -nan  -nan  -nan  -nan  -nan  -nan  -nan  -nan  -nan  -nan  -nan  -nan  -nan  -nan  -nan  -nan  -nan  -nan  -nan  -nan  -nan  -nan  -nan  -nan  -nan  -nan  -nan  -nan  -nan  -nan  -nan  -nan  -nan  -nan  -nan  -nan  -nan  -nan  -nan  -nan  -nan  -nan  -nan  -nan  -nan  -nan  -nan  -nan  -nan  -nan  -nan  -nan  -nan  -nan  -nan  -nan  -nan  -nan  -nan  -nan  -nan  -nan  -nan  -nan  -nan  -nan  -nan  -nan  -nan  -nan  -nan  -nan  -nan  -nan  -nan  -nan  -nan  -nan  -nan  -nan  -nan  -nan  -nan  -nan  -nan  -nan  -nan  -nan  -nan  -nan  -nan  -nan  -nan  -nan  -nan  -nan  -nan  -nan  -nan  -nan  -nan  -nan  -nan  -nan  -nan  -nan  -nan  -nan  -nan  -nan  -nan  -nan  -nan  -nan  -nan  -nan  -nan  -nan  -nan  -nan  -nan  -nan  -nan  -nan  -nan  -nan  -nan  -nan  -nan  -nan  -nan  -nan  -nan  -nan  -nan  -nan  -nan  -nan  -nan  -nan  -nan  -nan  -nan  -nan  -nan  -nan  -nan  -nan  -nan  -nan  -nan  -nan  -nan  -nan  -nan  -nan  -nan  -nan  -nan  -nan  -nan  -nan  -nan  -nan  -nan  -nan  -nan  -nan  -nan  -nan  -nan  -nan  -nan  -nan  -nan  -nan  -nan  -nan  -nan  -nan  -nan  -nan  -nan  -nan  -nan  -nan  -nan  -nan  -nan  -nan  -nan  -nan  -nan  -nan  -nan  -nan  -nan  -nan  -nan  -nan  -nan  -nan  -nan  -nan  -nan  -nan  -nan  -nan  -nan  -nan  -nan  -nan  -nan  -nan  -nan  -nan  -nan  -nan  -nan  -nan  -nan  -nan  -nan  -nan  -nan  -nan  -nan  -nan  -nan  -nan  -nan  -nan  -nan  -nan  -nan  -nan  -nan  -nan  -nan  -nan  -nan  -nan  -nan  -nan  -nan  -nan  -nan  -nan  -nan  -nan  -nan  -nan  -nan  -nan  -nan  -nan  -nan  -nan  -nan  -nan  -nan  -nan  -nan  -nan  -nan  -nan  -nan  -nan  -nan  -nan  -nan  -nan  -nan  -nan  -nan  -nan  -nan  -nan  -nan  -nan  -nan  -nan  -nan  -nan  -nan  -nan  -nan  -nan  -nan  -nan  -nan  -nan  -nan  -nan  -nan  -nan  -nan  -nan  -nan  -nan  -nan  -nan  -nan  -nan  -nan  -nan  -nan  -nan  -nan  -nan  -nan  -nan  -nan  -nan  -nan  -nan  -nan  -nan  -nan  -nan  -nan  -nan  -nan  -nan  -nan  -nan  -nan  -nan  -nan  -nan  -nan  -nan  -nan  -nan  -nan  -nan  -nan  -nan  -nan  -nan  -nan  -nan  -nan  -nan  -nan  -nan  -nan  -nan  -nan  -nan  -nan  -nan  -nan  -nan  -nan  -nan  -nan  -nan  -nan  -nan  -nan  -nan  -nan  -nan  -nan  -nan  -nan  -nan  -nan  -nan  -nan  -nan  -nan  -nan  -nan  -nan  -nan  -nan  -nan  -nan  -nan  -nan  -nan  -nan  -nan  -nan  -nan  -nan  -nan  -nan  -nan  -nan  -nan  -nan  -nan  -nan  -nan  -nan  -nan  -nan  -nan  -nan  -nan  -nan  -nan  -nan  -nan  -nan  -nan  -nan  -nan  -nan  -nan  -nan  -nan  -nan  -nan  -nan  -nan  -nan  -nan  -nan  -nan  -nan  -nan  -nan  -nan  -nan  -nan  -nan  -nan  -nan  -nan  -nan  -nan  -nan  -nan  -nan  -nan  -nan  -nan  -nan  -nan  -nan  -nan  -nan  -nan  -nan  -nan  -nan  -nan  -nan  -nan  -nan  -nan  -nan  -nan  -nan  -nan  -nan  -nan  -nan  -nan  -nan  -nan  -nan  -nan  -nan  -nan  -nan  -nan  -nan  -nan  -nan  -nan  -nan  -nan  -nan  -nan  -nan  -nan  -nan  -nan  -nan  -nan  -nan  -nan  -nan  -nan  -nan  -nan  -nan  -nan  -nan  -nan  -nan  -nan  -nan  -nan  -nan  -nan  -nan  -nan  -nan  -nan  -nan  -nan  -nan  -nan  -nan  -nan  -nan  -nan  -nan  -nan  -nan  -nan  -nan  -nan  -nan  -nan  -nan  -nan  -nan  -nan  -nan  -nan  -nan  -nan  -nan  -nan  -nan  -nan  -nan  -nan  -nan  -nan  -nan  -nan  -nan  -nan  -nan  -nan  -nan  -nan  -nan  -nan  -nan  -nan  -nan  -nan  -nan  -nan  -nan  -nan  -nan  -nan  -nan  -nan  -nan  -nan  -nan  -nan  -nan  -nan  -nan  -nan  -nan  -nan  -nan  -nan  -nan  -nan  -nan  -nan  -nan  -nan  -nan  -nan  -nan  -nan  -nan  -nan  -nan  -nan  -nan  -nan  -nan  -nan  -nan  -nan  -nan  -nan  -nan  -nan  -nan  -nan  -nan  -nan  -nan  -nan  -nan  -nan  -nan  -nan  -nan  -nan  -nan  -nan  -nan  -nan  -nan  -nan  -nan  -nan  -nan  -nan  -nan  -nan  -nan  -nan  -nan  -nan  -nan  -nan  -nan  -nan  -nan  -nan  -nan  -nan  -nan  -nan  -nan  -nan  -nan  -nan  -nan  -nan  -nan  -nan  -nan  -nan  -nan  -nan  -nan  -nan  -nan  -nan  -nan  -nan  -nan  -nan  -nan  -nan  -nan  -nan  -nan  -nan  -nan  -nan  -nan  -nan  -nan  -nan  -nan  -nan  -nan  -nan  -nan  -nan  -nan  -nan  -nan  -nan  -nan  -nan  -nan  -nan  -nan  -nan  -nan  -nan  -nan  -nan  -nan  -nan  -nan  -nan  -nan  -nan  -nan  -nan  -nan  -nan  -nan  -nan  -nan  -nan  -nan  -nan  -nan  -nan  -nan  -nan  -nan  -nan  -nan  -nan  -nan  -nan  -nan  -nan  -nan  -nan  -nan  -nan  -nan  -nan  -nan  -nan  -nan  -nan  -nan  -nan  -nan  -nan  -nan  -nan  -nan  -nan  -nan  -nan  -nan  -nan  -nan  -nan  -nan  -nan  -nan  -nan  -nan  -nan  -nan  -nan  -nan  -nan  -nan  -nan  -nan  -nan  -nan  -nan  -nan  -nan  -nan  -nan  -nan  -nan  -nan  -nan  -nan  -nan  -nan  -nan  -nan  -nan  -nan  -nan  -nan  -nan  -nan  -nan  -nan  -nan  -nan  -nan  -nan  -nan  -nan  -nan  -nan  -nan  -nan  -nan  -nan  -nan  -nan  -nan  -nan  -nan  -nan  -nan  -nan  -nan  -nan  -nan  -nan  -nan  -nan  -nan  -nan  -nan  -nan  -nan  -nan  -nan  -nan  -nan  -nan  -nan  -nan  -nan  -nan  -nan  -nan  -nan  -nan  -nan  -nan  -nan  -nan  -nan  -nan  -nan  -nan  -nan  -nan  -nan  -nan  -nan  -nan  -nan  -nan  -nan  -nan  -nan  -nan  -nan  -nan  -nan  -nan  -nan  -nan  -nan  -nan  -nan  -nan  -nan  -nan  -nan  -nan  -nan  -nan  -nan  -nan  -nan  -nan  -nan  -nan  -nan  -nan  -nan  -nan  -nan  -nan  -nan  -nan  -nan  -nan  -nan  -nan  -nan  -nan  -nan  -nan  -nan  -nan  -nan  -nan  -nan  -nan  -nan  -nan  -nan  -nan  -nan  -nan  -nan  -nan  -nan  -nan  -nan  -nan  -nan  -nan  -nan  -nan  -nan  -nan  -nan  -nan  -nan  -nan  -nan  -nan  -nan  -nan  -nan  -nan  -nan  -nan  -nan  -nan  -nan  -nan  -nan  -nan  -nan  -nan  -nan  -nan  -nan  -nan  -nan  -nan  -nan  -nan  -nan  -nan  -nan  -nan  -nan  -nan  -nan  -nan  -nan  -nan  -nan  -nan  -nan  -nan  -nan  -nan  -nan  -nan  -nan  -nan  -nan  -nan  -nan  -nan  -nan  -nan  -nan  -nan  -nan  -nan  -nan  -nan  -nan  -nan  -nan  -nan  -nan  -nan  -nan  -nan  -nan  -nan  -nan  -nan  -nan  -nan  -nan  -nan  -nan  -nan  -nan  -nan  -nan  -nan  -nan  -nan  -nan  -nan  -nan  -nan  -nan  -nan  -nan  -nan  -nan  -nan  -nan  -nan  -nan  -nan  -nan  -nan  -nan  -nan  -nan  -nan  -nan  -nan  -nan  -nan  -nan  -nan  -nan  -nan  -nan  -nan  -nan  -nan  -nan  -nan  -nan  -nan  -nan  -nan  -nan  -nan  -nan  -nan  -nan  -nan  -nan  -nan  -nan  -nan  -nan  -nan  -nan  -nan  -nan  -nan  -nan  -nan  -nan  -nan  -nan  -nan  -nan  -nan  -nan  -nan  -nan  -nan  -nan  -nan  -nan  -nan  -nan  -nan  -nan  -nan  -nan  -nan  -nan  -nan  -nan  -nan  -nan  -nan  -nan  -nan  -nan  -nan  -nan  -nan  -nan  -nan  -nan  -nan  -nan  -nan  -nan  -nan  -nan  -nan  -nan  -nan  -nan  -nan  -nan  -nan  -nan  -nan  -nan  -nan  -nan  -nan  -nan  -nan  -nan  -nan  -nan  -nan  -nan  -nan  -nan  -nan  -nan  -nan  -nan  -nan  -nan  -nan  -nan  -nan  -nan  -nan  -nan  -nan  -nan  -nan  -nan  -nan  -nan  -nan  -nan  -nan  -nan  -nan  -nan  -nan  -nan  -nan  -nan  -nan  -nan  -nan  -nan  -nan  -nan  -nan  -nan  -nan  -nan  -nan  -nan  -nan  -nan  -nan  -nan  -nan  -nan  -nan  -nan  -nan  -nan  -nan  -nan  -nan  -nan  -nan  -nan  -nan  -nan  -nan  -nan  -nan  -nan  -nan  -nan  -nan  -nan  -nan  -nan  -nan  -nan  -nan  -nan  -nan  -nan  -nan  -nan  -nan  -nan  -nan  -nan  -nan  -nan  -nan  -nan  -nan  -nan  -nan  -nan  -nan  -nan  -nan  -nan  -nan  -nan  -nan  -nan  -nan  -nan  -nan  -nan  -nan  -nan  -nan  -nan  -nan  -nan  -nan  -nan  -nan  -nan  -nan  -nan  -nan  -nan  -nan  -nan  -nan  -nan  -nan  -nan  -nan  -nan  -nan  -nan  -nan  -nan  -nan  -nan  -nan  -nan  -nan  -nan  -nan  -nan  -nan  -nan  -nan  -nan  -nan  -nan  -nan  -nan  -nan  -nan  -nan  -nan  -nan  -nan  -nan  -nan  -nan  -nan  -nan  -nan  -nan  -nan  -nan  -nan  -nan  -nan  -nan  -nan  -nan  -nan  -nan  -nan  -nan  -nan  -nan  -nan  -nan  -nan  -nan  -nan  -nan  -nan  -nan  -nan  -nan  -nan  -nan  -nan  -nan  -nan  -nan  -nan  -nan  -nan  -nan  -nan  -nan  -nan  -nan  -nan  -nan  -nan  -nan  -nan  -nan  -nan  -nan  -nan  -nan  -nan  -nan  -nan  -nan  -nan  -nan  -nan  -nan  -nan  -nan  -nan  -nan  -nan  -nan  -nan  -nan  -nan  -nan  -nan  -nan  -nan  -nan  -nan  -nan  -nan  -nan  -nan  -nan  -nan  -nan  -nan  -nan  -nan  -nan  -nan  -nan  -nan  -nan  -nan  -nan  -nan  -nan  -nan  -nan  -nan  -nan  -nan  -nan  -nan  -nan  -nan  -nan  -nan  -nan  -nan  -nan  -nan  -nan  -nan  -nan  -nan  -nan  -nan  -nan  -nan  -nan  -nan  -nan  -nan  -nan  -nan  -nan  -nan  -nan  -nan  -nan  -nan  -nan  -nan  -nan  -nan  -nan  -nan  -nan  -nan  -nan  -nan  -nan  -nan  -nan  -nan  -nan  -nan  -nan  -nan  -nan  -nan  -nan  -nan  -nan  -nan  -nan  -nan  -nan  -nan  -nan  -nan  -nan  -nan  -nan  -nan  -nan  -nan  -nan  -nan  -nan  -nan  -nan  -nan  -nan  -nan  -nan  -nan  -nan  -nan  -nan  -nan  -nan  -nan  -nan  -nan  -nan  -nan  -nan  -nan  -nan  -nan  -nan  -nan  -nan  -nan  -nan  -nan  -nan  -nan  -nan  -nan  -nan  -nan  -nan  -nan  -nan  -nan  -nan  -nan  -nan  -nan  -nan  -nan  -nan  -nan  -nan  -nan  -nan  -nan  -nan  -nan  -nan  -nan  -nan  -nan  -nan  -nan  -nan  -nan  -nan  -nan  -nan  -nan  -nan  -nan  -nan  -nan  -nan  -nan  -nan  -nan  -nan  -nan  -nan  -nan  -nan  -nan  -nan  -nan  -nan  -nan  -nan  -nan  -nan  -nan  -nan  -nan  -nan  -nan  -nan  -nan  -nan  -nan  -nan  -nan  -nan  -nan  -nan  -nan  -nan  -nan  -nan  -nan  -nan  -nan  -nan  -nan  -nan  -nan  -nan  -nan  -nan  -nan  -nan  -nan  -nan  -nan  -nan  -nan  -nan  -nan  -nan  -nan  -nan  -nan  -nan  -nan  -nan  -nan  -nan  -nan  -nan  -nan  -nan  -nan  -nan  -nan  -nan  -nan  -nan  -nan  -nan  -nan  -nan  -nan  -nan  -nan  -nan  -nan  -nan  -nan  -nan  -nan  -nan  -nan  -nan  -nan  -nan  -nan  -nan  -nan  -nan  -nan  -nan  -nan  -nan  -nan  -nan  -nan  -nan  -nan  -nan  -nan  -nan  -nan  -nan  -nan  -nan  -nan  -nan  -nan  -nan  -nan  -nan  -nan  -nan  -nan  -nan  -nan  -nan  -nan  -nan  -nan  -nan  -nan  -nan  -nan  -nan  -nan  -nan  -nan  -nan  -nan  -nan  -nan  -nan  -nan  -nan  -nan  -nan  -nan  -nan  -nan  -nan  -nan  -nan  -nan  -nan  -nan  -nan  -nan  -nan  -nan  -nan  -nan  -nan  -nan  -nan  -nan  -nan  -nan  -nan  -nan  -nan  -nan  -nan  -nan  -nan  -nan  -nan  -nan  -nan  -nan  -nan  -nan  -nan  -nan  -nan  -nan  -nan  -nan  -nan  -nan  -nan  -nan  -nan  -nan  -nan  -nan  -nan  -nan  -nan  -nan  -nan  -nan  -nan  -nan  -nan  -nan  -nan  -nan  -nan  -nan  -nan  -nan  -nan  -nan  -nan  -nan  -nan  -nan  -nan  -nan  -nan  -nan  -nan  -nan  -nan  -nan  -nan  -nan  -nan  -nan  -nan  -nan  -nan  -nan  -nan  -nan  -nan  -nan  -nan  -nan  -nan  -nan  -nan  -nan  -nan  -nan  -nan  -nan  -nan  -nan  -nan  -nan  -nan  -nan  -nan  -nan  -nan  -nan  -nan  -nan  -nan  -nan  -nan  -nan  -nan  -nan  -nan  -nan  -nan  -nan  -nan  -nan  -nan  -nan  -nan  -nan  -nan  -nan  -nan  -nan  -nan  -nan  -nan  -nan  -nan  -nan  -nan  -nan  -nan  -nan  -nan  -nan  -nan  -nan  -nan  -nan  -nan  -nan  -nan  -nan  -nan  -nan  -nan  -nan  -nan  -nan  -nan  -nan  -nan  -nan  -nan  -nan  -nan  -nan  -nan  -nan  -nan  -nan  -nan  -nan  -nan  -nan  -nan  -nan  -nan  -nan  -nan  -nan  -nan  -nan  -nan  -nan  -nan  -nan  -nan  -nan  -nan  -nan  -nan  -nan  -nan  -nan  -nan  -nan  -nan  -nan  -nan  -nan  -nan  -nan  -nan  -nan  -nan  -nan  -nan  -nan  -nan  -nan  -nan  -nan  -nan  -nan  -nan  -nan  -nan  -nan  -nan  -nan  -nan  -nan  -nan  -nan  -nan  -nan  -nan  -nan  -nan  -nan  -nan  -nan  -nan  -nan  -nan  -nan  -nan  -nan  -nan  -nan  -nan  -nan  -nan  -nan  -nan  -nan  -nan  -nan  -nan  -nan  -nan  -nan  -nan  -nan  -nan  -nan  -nan  -nan  -nan  -nan  -nan  -nan  -nan  -nan  -nan  -nan  -nan  -nan  -nan  -nan  -nan  -nan  -nan  -nan  -nan  -nan  </DataArray> 
</PointData> 
</Piece>
</UnstructuredGrid>
</VTKFile>