<?xml version="1.0"?>
<VTKFile type="UnstructuredGrid"  version="0.1"  >
<UnstructuredGrid>
<Piece  NumberOfPoints="1695" NumberOfCells="3016">
<Points>
<DataArray  type="Float64"  NumberOfComponents="3"  format="ascii">0 10 0  0 0 0  5 0 0  5 7.96077e-06 0  5.00076 0.0523651 0  5.00305 0.104706 0  5.00685 0.157016 0  5.01218 0.209277 0  5.01903 0.261475 0  5.02739 0.313593 0  5.03727 0.365616 0  5.04866 0.417527 0  5.06156 0.469311 0  5.07596 0.520952 0  5.09187 0.572434 0  5.10926 0.623742 0  5.12815 0.67486 0  5.14852 0.725773 0  5.17037 0.776464 0  5.19369 0.826919 0  5.21848 0.877122 0  5.24472 0.927058 0  5.27241 0.976711 0  5.30154 1.02607 0  5.3321 1.07511 0  5.36409 1.12383 0  5.39748 1.1722 0  5.43228 1.22022 0  5.46847 1.26786 0  5.50603 1.31512 0  5.54497 1.36198 0  5.58527 1.40842 0  5.62691 1.45443 0  5.66988 1.50001 0  5.71417 1.54512 0  5.75977 1.58976 0  5.80665 1.63392 0  5.85482 1.67758 0  5.90425 1.72073 0  5.95492 1.76336 0  6.00683 1.80545 0  6.05995 1.84699 0  6.11428 1.88797 0  6.16978 1.92837 0  6.22646 1.96818 0  6.28428 2.0074 0  6.34324 2.046 0  6.40331 2.08398 0  6.46447 2.12132 0  6.52672 2.15802 0  6.59002 2.19407 0  6.65435 2.22944 0  6.71971 2.26413 0  6.78607 2.29814 0  6.85341 2.33144 0  6.9217 2.36404 0  6.99093 2.39591 0  7.06108 2.42705 0  7.13213 2.45746 0  7.20404 2.48712 0  7.27681 2.51601 0  7.35041 2.54415 0  7.42482 2.5715 0  7.50001 2.59808 0  7.57596 2.62386 0  7.65265 2.64885 0  7.73006 2.67302 0  7.80815 2.69638 0  7.88692 2.71893 0  7.96632 2.74064 0  8.04635 2.76152 0  8.12697 2.78155 0  8.208170000000001 2.80074 0  8.289910000000001 2.81908 0  8.372170000000001 2.83656 0  8.45492 2.85317 0  8.53815 2.86892 0  8.62182 2.88379 0  8.705909999999999 2.89778 0  8.7904 2.91089 0  8.875249999999999 2.92311 0  8.96045 2.93444 0  9.045959999999999 2.94488 0  9.131769999999999 2.95442 0  9.217829999999999 2.96307 0  9.30414 2.9708 0  9.39066 2.97764 0  9.477359999999999 2.98357 0  9.56423 2.98858 0  9.65122 2.99269 0  9.738329999999999 2.99589 0  9.82551 2.99817 0  9.912739999999999 2.99954 0  10 3 0  10 0 0  15 0 0  15 10 0  10 10 0  10 7 0  9.999980000000001 7 0  9.91272 7.00046 0  9.825480000000001 7.00183 0  9.738300000000001 7.00411 0  9.651199999999999 7.00731 0  9.5642 7.01142 0  9.47734 7.01644 0  9.39063 7.02236 0  9.304119999999999 7.0292 0  9.21781 7.03694 0  9.131740000000001 7.04558 0  9.04594 7.05512 0  8.960419999999999 7.06556 0  8.87523 7.07689 0  8.790369999999999 7.08912 0  8.70589 7.10223 0  8.6218 7.11622 0  8.538119999999999 7.13109 0  8.4549 7.14683 0  8.37214 7.16345 0  8.28988 7.18093 0  8.20814 7.19926 0  8.126950000000001 7.21845 0  8.046329999999999 7.23849 0  7.9663 7.25937 0  7.88689 7.28108 0  7.80813 7.30362 0  7.73003 7.32699 0  7.65263 7.35116 0  7.57594 7.37615 0  7.49998 7.40193 0  7.42479 7.4285 0  7.35039 7.45586 0  7.27679 7.48399 0  7.20402 7.51289 0  7.1321 7.54255 0  7.06106 7.57296 0  6.99091 7.6041 0  6.92168 7.63597 0  6.85338 7.66857 0  6.78605 7.70187 0  6.71969 7.73588 0  6.65433 7.77057 0  6.59 7.80595 0  6.5267 7.84199 0  6.46445 7.87869 0  6.40329 7.91603 0  6.34322 7.95401 0  6.28426 7.99262 0  6.22644 8.031829999999999 0  6.16977 8.07164 0  6.11426 8.11205 0  6.05994 8.15302 0  6.00681 8.194559999999999 0  5.95491 8.236649999999999 0  5.90423 8.27928 0  5.8548 8.322430000000001 0  5.80664 8.36609 0  5.75975 8.41025 0  5.71416 8.454890000000001 0  5.66987 8.50001 0  5.62689 8.545579999999999 0  5.58525 8.59159 0  5.54496 8.63804 0  5.50602 8.684889999999999 0  5.46845 8.732150000000001 0  5.43227 8.7798 0  5.39747 8.827809999999999 0  5.36408 8.876189999999999 0  5.33209 8.924899999999999 0  5.30153 8.97395 0  5.2724 9.023300000000001 0  5.24471 9.07296 0  5.21847 9.12289 0  5.19369 9.1731 0  5.17037 9.223549999999999 0  5.14852 9.274240000000001 0  5.12815 9.32516 0  5.10926 9.37627 0  5.09186 9.427580000000001 0  5.07596 9.47906 0  5.06156 9.5307 0  5.04866 9.58249 0  5.03727 9.634399999999999 0  5.02739 9.68642 0  5.01903 9.73854 0  5.01218 9.79074 0  5.00685 9.843 0  5.00305 9.89531 0  5.00076 9.947649999999999 0  5 10 0  0 5 0  15 5 0  3.79881 4.90116 0  0 7.5 0  2.5 10 0  0 2.5 0  2.5 0 0  12.5 0 0  12.5 10 0  15 2.5 0  15 7.5 0  12.6 3.75 0  2.67123 7.32877 0  3.19436 2.43867 0  12.4773 7.47727 0  6.42232 5 0  8.52786 5 0  10.8312 5 0  1.87643 4.0676 0  4.63842 6.72303 0  11.7264 1.89696 0  5.10197 3.50862 0  12.5922 5.6154 0  1.26098 6.25 0  10 8.5 0  13.49 1.51 0  1.58011 1.58011 0  1.41091 8.589090000000001 0  13.7275 8.72748 0  3.60712 8.68702 0  13.7465 6.62115 0  10 1.5 0  11.3361 6.38258 0  11.5518 8.74708 0  2.43879 5.40417 0  6.08751 6.42049 0  7.47509 4.06523 0  7.47509 5.93477 0  13.6375 4.68704 0  13.6719 2.87909 0  11.3483 3.20769 0  3.75 0 0  5.11522 4.82704 0  4.54072 2.27376 0  11.25 0 0  3.48734 6.1491 0  2.80034 1.23267 0  3.79932 3.5956 0  1.27761 2.87754 0  15 3.75 0  3.75 10 0  1.25 10 0  15 1.25 0  13.75 0 0  0 6.25 0  1.25 0 0  0 1.25 0  0 8.75 0  15 6.25 0  15 8.75 0  13.75 10 0  11.25 10 0  0 3.75 0  6.28813 3.78865 0  4.01134 1.18349 0  11.0868 7.5974 0  1.4917 7.40956 0  9.646559999999999 4.30808 0  9.67956 5.672 0  1.31949 5.08852 0  4.55573 7.93237 0  2.51803 8.435890000000001 0  12.5781 2.62788 0  12.6412 8.90788 0  11.6352 4.26118 0  8.52657 6.05876 0  8.52657 3.94124 0  13.5323 7.67247 0  2.85597 4.44205 0  2.33513 3.0911 0  14.1345 5.62916 0  3.69833 7.16721 0  11.875 0.851345 0  10.7922 2.33739 0  5.50992 7.27561 0  10.5588 3.85276 0  4.50301 5.68103 0  10.8572 0.943477 0  10 9.25 0  2.54299 6.36792 0  5.85296 2.88793 0  0.959454 3.78332 0  7.3637 5 0  5.68124 5.57503 0  12.2892 6.53118 0  12.6991 4.68313 0  11.7513 5.19438 0  2.37074 2.04039 0  0.8168840000000001 2.08614 0  2.0097 0.772384 0  14.0241 3.7901 0  14.1722 2.11598 0  13.125 0.669767 0  12.5596 1.48204 0  10.5718 5.87821 0  4.49217 4.17402 0  0.643352 8.125 0  1.875 9.35665 0  0.715923 6.96119 0  14.3746 8.125 0  14.3529 9.352869999999999 0  0 9.375 0  0.625 10 0  0.89806 0.89806 0  14.1532 0.846805 0  0 5.625 0  2.91013 9.222569999999999 0  4.23324 9.283149999999999 0  3.28817 7.90524 0  7.00861 3.32802 0  10.7358 8.875 0  15 3.125 0  0.750271 9.0625 0  11.7469 7.13072 0  0 3.125 0  6.94828 6.65464 0  11.8194 7.96996 0  12.0146 9.38208 0  5.57358 4.16316 0  13.125 10 0  3.38525 0.701142 0  15 4.375 0  5.30159 6.27781 0  0 4.375 0  3.10991 3.21946 0  13.3609 5.89846 0  14.2286 7.26685 0  12.999 6.88183 0  12.8977 8.15381 0  4.41873 3.07418 0  0.763666 4.53959 0  10 0.75 0  10 2.25 0  10 7.75 0  3.42564 1.69574 0  2.05087 6.92258 0  6.24281 7.14802 0  10.7636 6.89807 0  6.65032 5.80344 0  10.625 10 0  2.11203 7.81556 0  1.93536 5.94611 0  3.10772 5.12272 0  2.18704 4.7235 0  5.33672 2.28196 0  2.54546 3.78589 0  13.0082 2.04788 0  11.8976 5.91214 0  7.94083 3.49438 0  7.94083 6.50562 0  4.70385 1.52089 0  13.3186 3.53928 0  0.641752 5.3125 0  10.6364 8.160690000000001 0  9.289619999999999 6.29466 0  13.2621 9.286020000000001 0  7.94578 4.59534 0  6.78376 4.34685 0  7.94578 5.40466 0  3.12999 6.75408 0  13.1661 5.20893 0  14.2962 4.94171 0  11.0392 1.65043 0  4.30074 8.585380000000001 0  14.3711 2.8125 0  9.224449999999999 3.70369 0  3.89555 2.58494 0  1.89404 2.55019 0  10.3198 4.51549 0  10.0053 6.29607 0  9.80612 4.98658 0  11.9131 3.61966 0  11.453 2.52799 0  10.6632 3.1749 0  11.1887 5.58304 0  9.90277 3.67827 0  4.375 0 0  8.990539999999999 5.52995 0  1.5549 3.4837 0  0.602244 2.8125 0  3.56741 9.35561 0  5.78398 4.79859 0  4.45526 4.83297 0  9.16474 4.77939 0  14.326 6.27595 0  3.84221 4.2484 0  13.1703 4.19866 0  5.25487 7.9266 0  11.3696 9.366009999999999 0  2.97947 5.75355 0  3.6156 5.51827 0  3.99355 6.57511 0  15 6.875 0  10.625 0 0  0.625 0 0  0 0.625 0  4.42541 0.6631050000000001 0  14.3719 1.47825 0  2.18355 1.38295 0  2.75173 0.5915899999999999 0  3.20071 3.87736 0  3.925 7.77617 0  4.32661 7.28002 0  12.5125 0.846309 0  0.630488 6.33125 0  3.99381 1.96425 0  4.375 10 0  3.125 10 0  14.375 0 0  15 8.125 0  3.125 0 0  1.875 10 0  0 6.875 0  0 8.125 0  13.125 0 0  15 0.625 0  1.875 0 0  0 1.875 0  11.875 0 0  15 5.625 0  15 9.375 0  14.375 10 0  11.875 10 0  15 1.875 0  5.2285 2.89704 0  12.1424 8.51587 0  12.8145 6.19698 0  6.40452 3.17693 0  4.90677 8.445740000000001 0  14.3857 8.739319999999999 0  5.72941 3.50311 0  1.38785 4.46344 0  11.2476 8.187709999999999 0  12.3498 3.19362 0  0.606138 1.47493 0  14.1382 4.37108 0  4.91814 7.24539 0  5.09994 5.71494 0  1.30063 6.84484 0  1.25169 7.98565 0  14.4719 3.39866 0  10.9827 4.35804 0  11.158 3.78048 0  10.3143 5.32472 0  12.9297 3.0987 0  1.36453 2.29713 0  0.5888949999999999 7.53743 0  13.5901 2.08435 0  0.521446 3.39336 0  1.84724 5.35946 0  1.13292 5.66133 0  1.32412 9.16564 0  11.5395 1.33702 0  10.4423 1.875 0  12.415 2.05744 0  12.0851 4.679 0  10.4387 7.375 0  11.3769 4.76716 0  10.5526 9.424910000000001 0  12.0025 2.72455 0  6.1191 4.33508 0  2.35605 9.00769 0  1.47308 1.00508 0  3.99966 5.92481 0  3.09012 8.441990000000001 0  1.94451 8.368220000000001 0  2.71607 7.89914 0  2.87239 1.7891 0  4.55294 3.61759 0  13.1587 8.663259999999999 0  12.5607 9.452669999999999 0  0.469542 4.05996 0  13.8105 9.269819999999999 0  12.1751 4.11413 0  12.3664 8.014799999999999 0  1.5625 0.452437 0  5.03175 4.05638 0  2.78317 2.78916 0  4.68761 8.969799999999999 0  9.014760000000001 4.23156 0  8.7974 6.53478 0  6.89301 5.3005 0  12.9957 7.62402 0  13.8095 8.16675 0  13.5007 7.11857 0  8.472770000000001 3.40443 0  13.8206 5.19258 0  12.3892 5.11986 0  13.1826 2.58925 0  0.9375 9.564640000000001 0  14.5213 3.99415 0  8.464130000000001 4.4707 0  8.00285 4.0204 0  8.00821 5.93412 0  11.5625 0.425673 0  12.1904 0.427803 0  8.460319999999999 5.53269 0  4.78892 5.23956 0  4.4521 6.21745 0  4.10894 5.32899 0  3.38853 4.54605 0  6.81541 3.81961 0  13.674 0.555577 0  5.94125 7.58449 0  3.90503 0.673969 0  5.15822 6.78076 0  3.18843 7.27119 0  10.5297 6.4141 0  1.71359 6.51857 0  13.8523 6.06444 0  2.06607 3.58269 0  10 2.625 0  5.81494 6.85901 0  12.0597 1.33772 0  13.2651 6
[...]
<PointData  Vectors="f_16-0"> 
<DataArray  type="Float64"  Name="f_16-0"  NumberOfComponents="3" format="ascii">0.0000000000000000e+00 0.0000000000000000e+00 0.0000000000000000e+00  0.0000000000000000e+00 0.0000000000000000e+00 0.0000000000000000e+00  0.0000000000000000e+00 0.0000000000000000e+00 0.0000000000000000e+00  0.0000000000000000e+00 0.0000000000000000e+00 0.0000000000000000e+00  0.0000000000000000e+00 0.0000000000000000e+00 0.0000000000000000e+00  0.0000000000000000e+00 0.0000000000000000e+00 0.0000000000000000e+00  0.0000000000000000e+00 0.0000000000000000e+00 0.0000000000000000e+00  0.0000000000000000e+00 0.0000000000000000e+00 0.0000000000000000e+00  0.0000000000000000e+00 0.0000000000000000e+00 0.0000000000000000e+00  0.0000000000000000e+00 0.0000000000000000e+00 0.0000000000000000e+00  0.0000000000000000e+00 0.0000000000000000e+00 0.0000000000000000e+00  0.0000000000000000e+00 0.0000000000000000e+00 0.0000000000000000e+00  0.0000000000000000e+00 0.0000000000000000e+00 0.0000000000000000e+00  0.0000000000000000e+00 0.0000000000000000e+00 0.0000000000000000e+00  0.0000000000000000e+00 0.0000000000000000e+00 0.0000000000000000e+00  0.0000000000000000e+00 0.0000000000000000e+00 0.0000000000000000e+00  0.0000000000000000e+00 0.0000000000000000e+00 0.0000000000000000e+00  0.0000000000000000e+00 0.0000000000000000e+00 0.0000000000000000e+00  0.0000000000000000e+00 0.0000000000000000e+00 0.0000000000000000e+00  0.0000000000000000e+00 0.0000000000000000e+00 0.0000000000000000e+00  0.0000000000000000e+00 0.0000000000000000e+00 0.0000000000000000e+00  0.0000000000000000e+00 0.0000000000000000e+00 0.0000000000000000e+00  0.0000000000000000e+00 0.0000000000000000e+00 0.0000000000000000e+00  0.0000000000000000e+00 0.0000000000000000e+00 0.0000000000000000e+00  0.0000000000000000e+00 0.0000000000000000e+00 0.0000000000000000e+00  0.0000000000000000e+00 0.0000000000000000e+00 0.0000000000000000e+00  0.0000000000000000e+00 0.0000000000000000e+00 0.0000000000000000e+00  0.0000000000000000e+00 0.0000000000000000e+00 0.0000000000000000e+00  0.0000000000000000e+00 0.0000000000000000e+00 0.0000000000000000e+00  0.0000000000000000e+00 0.0000000000000000e+00 0.0000000000000000e+00  0.0000000000000000e+00 0.0000000000000000e+00 0.0000000000000000e+00  0.0000000000000000e+00 0.0000000000000000e+00 0.0000000000000000e+00  0.0000000000000000e+00 0.0000000000000000e+00 0.0000000000000000e+00  0.0000000000000000e+00 0.0000000000000000e+00 0.0000000000000000e+00  0.0000000000000000e+00 0.0000000000000000e+00 0.0000000000000000e+00  0.0000000000000000e+00 0.0000000000000000e+00 0.0000000000000000e+00  0.0000000000000000e+00 0.0000000000000000e+00 0.0000000000000000e+00  0.0000000000000000e+00 0.0000000000000000e+00 0.0000000000000000e+00  0.0000000000000000e+00 0.0000000000000000e+00 0.0000000000000000e+00  0.0000000000000000e+00 0.0000000000000000e+00 0.0000000000000000e+00  0.0000000000000000e+00 0.0000000000000000e+00 0.0000000000000000e+00  0.0000000000000000e+00 0.0000000000000000e+00 0.0000000000000000e+00  0.0000000000000000e+00 0.0000000000000000e+00 0.0000000000000000e+00  0.0000000000000000e+00 0.0000000000000000e+00 0.0000000000000000e+00  0.0000000000000000e+00 0.0000000000000000e+00 0.0000000000000000e+00  0.0000000000000000e+00 0.0000000000000000e+00 0.0000000000000000e+00  0.0000000000000000e+00 0.0000000000000000e+00 0.0000000000000000e+00  0.0000000000000000e+00 0.0000000000000000e+00 0.0000000000000000e+00  0.0000000000000000e+00 0.0000000000000000e+00 0.0000000000000000e+00  0.0000000000000000e+00 0.0000000000000000e+00 0.0000000000000000e+00  0.0000000000000000e+00 0.0000000000000000e+00 0.0000000000000000e+00  0.0000000000000000e+00 0.0000000000000000e+00 0.0000000000000000e+00  0.0000000000000000e+00 0.0000000000000000e+00 0.0000000000000000e+00  0.0000000000000000e+00 0.0000000000000000e+00 0.0000000000000000e+00  0.0000000000000000e+00 0.0000000000000000e+00 0.0000000000000000e+00  0.0000000000000000e+00 0.0000000000000000e+00 0.0000000000000000e+00  0.0000000000000000e+00 0.0000000000000000e+00 0.0000000000000000e+00  0.0000000000000000e+00 0.0000000000000000e+00 0.0000000000000000e+00  0.0000000000000000e+00 0.0000000000000000e+00 0.0000000000000000e+00  0.0000000000000000e+00 0.0000000000000000e+00 0.0000000000000000e+00  0.0000000000000000e+00 0.0000000000000000e+00 0.0000000000000000e+00  0.0000000000000000e+00 0.0000000000000000e+00 0.0000000000000000e+00  0.0000000000000000e+00 0.0000000000000000e+00 0.0000000000000000e+00  0.0000000000000000e+00 0.0000000000000000e+00 0.0000000000000000e+00  0.0000000000000000e+00 0.0000000000000000e+00 0.0000000000000000e+00  0.0000000000000000e+00 0.0000000000000000e+00 0.0000000000000000e+00  0.0000000000000000e+00 0.0000000000000000e+00 0.0000000000000000e+00  0.0000000000000000e+00 0.0000000000000000e+00 0.0000000000000000e+00  0.0000000000000000e+00 0.0000000000000000e+00 0.0000000000000000e+00  0.0000000000000000e+00 0.0000000000000000e+00 0.0000000000000000e+00  0.0000000000000000e+00 0.0000000000000000e+00 0.0000000000000000e+00  0.0000000000000000e+00 0.0000000000000000e+00 0.0000000000000000e+00  0.0000000000000000e+00 0.0000000000000000e+00 0.0000000000000000e+00  0.0000000000000000e+00 0.0000000000000000e+00 0.0000000000000000e+00  0.0000000000000000e+00 0.0000000000000000e+00 0.0000000000000000e+00  0.0000000000000000e+00 0.0000000000000000e+00 0.0000000000000000e+00  0.0000000000000000e+00 0.0000000000000000e+00 0.0000000000000000e+00  0.0000000000000000e+00 0.0000000000000000e+00 0.0000000000000000e+00  0.0000000000000000e+00 0.0000000000000000e+00 0.0000000000000000e+00  0.0000000000000000e+00 0.0000000000000000e+00 0.0000000000000000e+00  0.0000000000000000e+00 0.0000000000000000e+00 0.0000000000000000e+00  0.0000000000000000e+00 0.0000000000000000e+00 0.0000000000000000e+00  0.0000000000000000e+00 0.0000000000000000e+00 0.0000000000000000e+00  0.0000000000000000e+00 0.0000000000000000e+00 0.0000000000000000e+00  0.0000000000000000e+00 0.0000000000000000e+00 0.0000000000000000e+00  0.0000000000000000e+00 0.0000000000000000e+00 0.0000000000000000e+00  0.0000000000000000e+00 0.0000000000000000e+00 0.0000000000000000e+00  0.0000000000000000e+00 0.0000000000000000e+00 0.0000000000000000e+00  0.0000000000000000e+00 0.0000000000000000e+00 0.0000000000000000e+00  0.0000000000000000e+00 0.0000000000000000e+00 0.0000000000000000e+00  0.0000000000000000e+00 0.0000000000000000e+00 0.0000000000000000e+00  0.0000000000000000e+00 0.0000000000000000e+00 0.0000000000000000e+00  0.0000000000000000e+00 0.0000000000000000e+00 0.0000000000000000e+00  0.0000000000000000e+00 0.0000000000000000e+00 0.0000000000000000e+00  0.0000000000000000e+00 0.0000000000000000e+00 0.0000000000000000e+00  0.0000000000000000e+00 0.0000000000000000e+00 0.0000000000000000e+00  0.0000000000000000e+00 -1.0805877644826871e-13 0.0000000000000000e+00  0.0000000000000000e+00 0.0000000000000000e+00 0.0000000000000000e+00  0.0000000000000000e+00 0.0000000000000000e+00 0.0000000000000000e+00  0.0000000000000000e+00 0.0000000000000000e+00 0.0000000000000000e+00  0.0000000000000000e+00 0.0000000000000000e+00 0.0000000000000000e+00  0.0000000000000000e+00 0.0000000000000000e+00 0.0000000000000000e+00  0.0000000000000000e+00 0.0000000000000000e+00 0.0000000000000000e+00  0.0000000000000000e+00 0.0000000000000000e+00 0.0000000000000000e+00  0.0000000000000000e+00 0.0000000000000000e+00 0.0000000000000000e+00  0.0000000000000000e+00 0.0000000000000000e+00 0.0000000000000000e+00  0.0000000000000000e+00 0.0000000000000000e+00 0.0000000000000000e+00  0.0000000000000000e+00 0.0000000000000000e+00 0.0000000000000000e+00  0.0000000000000000e+00 0.0000000000000000e+00 0.0000000000000000e+00  0.0000000000000000e+00 0.0000000000000000e+00 0.0000000000000000e+00  0.0000000000000000e+00 0.0000000000000000e+00 0.0000000000000000e+00  0.0000000000000000e+00 0.0000000000000000e+00 0.0000000000000000e+00  0.0000000000000000e+00 0.0000000000000000e+00 0.0000000000000000e+00  0.0000000000000000e+00 0.0000000000000000e+00 0.0000000000000000e+00  0.0000000000000000e+00 0.0000000000000000e+00 0.0000000000000000e+00  0.0000000000000000e+00 0.0000000000000000e+00 0.0000000000000000e+00  0.0000000000000000e+00 0.0000000000000000e+00 0.0000000000000000e+00  0.0000000000000000e+00 0.0000000000000000e+00 0.0000000000000000e+00  0.0000000000000000e+00 0.0000000000000000e+00 0.0000000000000000e+00  0.0000000000000000e+00 0.0000000000000000e+00 0.0000000000000000e+00  0.0000000000000000e+00 0.0000000000000000e+00 0.0000000000000000e+00  0.0000000000000000e+00 0.0000000000000000e+00 0.0000000000000000e+00  0.0000000000000000e+00 0.0000000000000000e+00 0.0000000000000000e+00  0.0000000000000000e+00 0.0000000000000000e+00 0.0000000000000000e+00  0.0000000000000000e+00 0.0000000000000000e+00 0.0000000000000000e+00  0.0000000000000000e+00 0.0000000000000000e+00 0.0000000000000000e+00  0.0000000000000000e+00 0.0000000000000000e+00 0.0000000000000000e+00  0.0000000000000000e+00 0.0000000000000000e+00 0.0000000000000000e+00  0.0000000000000000e+00 0.0000000000000000e+00 0.0000000000000000e+00  0.0000000000000000e+00 0.0000000000000000e+00 0.0000000000000000e+00  0.0000000000000000e+00 0.0000000000000000e+00 0.0000000000000000e+00  0.0000000000000000e+00 0.0000000000000000e+00 0.0000000000000000e+00  0.0000000000000000e+00 0.0000000000000000e+00 0.0000000000000000e+00  0.0000000000000000e+00 0.0000000000000000e+00 0.0000000000000000e+00  0.0000000000000000e+00 0.0000000000000000e+00 0.0000000000000000e+00  0.0000000000000000e+00 0.0000000000000000e+00 0.0000000000000000e+00  0.0000000000000000e+00 0.0000000000000000e+00 0.0000000000000000e+00  0.0000000000000000e+00 0.0000000000000000e+00 0.0000000000000000e+00  0.0000000000000000e+00 0.0000000000000000e+00 0.0000000000000000e+00  0.0000000000000000e+00 0.0000000000000000e+00 0.0000000000000000e+00  0.0000000000000000e+00 0.0000000000000000e+00 0.0000000000000000e+00  0.0000000000000000e+00 0.0000000000000000e+00 0.0000000000000000e+00  0.0000000000000000e+00 0.0000000000000000e+00 0.0000000000000000e+00  0.0000000000000000e+00 0.0000000000000000e+00 0.0000000000000000e+00  0.0000000000000000e+00 0.0000000000000000e+00 0.0000000000000000e+00  0.0000000000000000e+00 0.0000000000000000e+00 0.0000000000000000e+00  0.0000000000000000e+00 0.0000000000000000e+00 0.0000000000000000e+00  0.0000000000000000e+00 0.0000000000000000e+00 0.0000000000000000e+00  0.0000000000000000e+00 0.0000000000000000e+00 0.0000000000000000e+00  0.0000000000000000e+00 0.0000000000000000e+00 0.0000000000000000e+00  0.0000000000000000e+00 0.0000000000000000e+00 0.0000000000000000e+00  0.0000000000000000e+00 0.0000000000000000e+00 0.0000000000000000e+00  0.0000000000000000e+00 0.0000000000000000e+00 0.0000000000000000e+00  0.0000000000000000e+00 0.0000000000000000e+00 0.0000000000000000e+00  0.0000000000000000e+00 0.0000000000000000e+00 0.0000000000000000e+00  0.0000000000000000e+00 0.0000000000000000e+00 0.0000000000000000e+00  0.0000000000000000e+00 0.0000000000000000e+00 0.0000000000000000e+00  0.0000000000000000e+00 0.0000000000000000e+00 0.0000000000000000e+00  0.0000000000000000e+00 0.0000000000000000e+00 0.0000000000000000e+00  0.0000000000000000e+00 0.0000000000000000e+00 0.0000000000000000e+00  0.0000000000000000e+00 0.0000000000000000e+00 0.0000000000000000e+00  0.0000000000000000e+00 0.0000000000000000e+00 0.0000000000000000e+00  0.0000000000000000e+00 0.0000000000000000e+00 0.0000000000000000e+00  0.0000000000000000e+00 0.0000000000000000e+00 0.0000000000000000e+00  0.0000000000000000e+00 0.0000000000000000e+00 0.0000000000000000e+00  0.0000000000000000e+00 0.0000000000000000e+00 0.0000000000000000e+00  0.0000000000000000e+00 0.0000000000000000e+00 0.0000000000000000e+00  0.0000000000000000e+00 0.0000000000000000e+00 0.0000000000000000e+00  0.0000000000000000e+00 0.0000000000000000e+00 0.0000000000000000e+00  0.0000000000000000e+00 0.0000000000000000e+00 0.0000000000000000e+00  0.0000000000000000e+00 0.0000000000000000e+00 0.0000000000000000e+00  0.0000000000000000e+00 0.0000000000000000e+00 0.0000000000000000e+00  0.0000000000000000e+00 0.0000000000000000e+00 0.0000000000000000e+00  0.0000000000000000e+00 0.0000000000000000e+00 0.0000000000000000e+00  0.0000000000000000e+00 0.0000000000000000e+00 0.0000000000000000e+00  0.0000000000000000e+00 0.0000000000000000e+00 0.0000000000000000e+00  0.0000000000000000e+00 0.0000000000000000e+00 0.0000000000000000e+00  0.0000000000000000e+00 0.0000000000000000e+00 0.0000000000000000e+00  0.0000000000000000e+00 0.0000000000000000e+00 0.0000000000000000e+00  0.0000000000000000e+00 0.0000000000000000e+00 0.0000000000000000e+00  0.0000000000000000e+00 0.0000000000000000e+00 0.0000000000000000e+00  0.0000000000000000e+00 0.0000000000000000e+00 0.0000000000000000e+00  0.0000000000000000e+00 0.0000000000000000e+00 0.0000000000000000e+00  0.0000000000000000e+00 0.0000000000000000e+00 0.0000000000000000e+00  0.0000000000000000e+00 0.0000000000000000e+00 0.0000000000000000e+00  0.0000000000000000e+00 0.0000000000000000e+00 0.0000000000000000e+00  0.0000000000000000e+00 0.0000000000000000e+00 0.0000000000000000e+00  0.0000000000000000e+00 0.0000000000000000e+00 0.0000000000000000e+00  0.0000000000000000e+00 0.0000000000000000e+00 0.0000000000000000e+00  0.0000000000000000e+00 0.0000000000000000e+00 0.0000000000000000e+00  4.4526018035853831e+06 -8.4552379081264462e+01 0.0000000000000000e+00  0.0000000000000000e+00 0.0000000000000000e+00 0.0000000000000000e+00  5.4646485311457030e+06 6.1085077377327230e+04 0.0000000000000000e+00  3.2379952105864272e+06 -1.1445338437399220e+05 0.0000000000000000e+00  0.0000000000000000e+00 0.0000000000000000e+00 0.0000000000000000e+00  3.2382681144071333e+06 1.1433089508114287e+05 0.0000000000000000e+00  0.0000000000000000e+00 0.0000000000000000e+00 0.0000000000000000e+00  0.0000000000000000e+00 0.0000000000000000e+00 0.0000000000000000e+00  0.0000000000000000e+00 0.0000000000000000e+00 0.0000000000000000e+00  0.0000000000000000e+00 0.0000000000000000e+00 0.0000000000000000e+00  0.0000000000000000e+00 0.0000000000000000e+00 0.0000000000000000e+00  1.6388876054127866e+06 -2.4750306051014634e+06 0.0000000000000000e+00  3.3220703700160417e+06 -4.8023907807882136e+05 0.0000000000000000e+00  2.9770465453449478e+06 6.1953828487995826e+05 0.0000000000000000e+00  -1.0069373822310327e+06 2.9529052157220892e+06 0.0000000000000000e+00  7.9430028093027584e+06 1.1463120501699570e+03 0.0000000000000000e+00  1.0171600205904381e+07 1.4197291110676577e+04 0.0000000000000000e+00  8.1189347839642074e+06 1.1859505734945933e+04 0.0000000000000000e+00  4.4651273064744575e+06 1.8995672417893750e+05 0.0000000000000000e+00  4.3627171784615852e+06 -1.1108653728865564e+06 0.0000000000000000e+00  -3.2383541503458386e+06 -2.8449572775733983e+06 0.0000000000000000e+00  4.9581336131981220e+06 1.1663541353229268e+06 0.0000000000000000e+00  2.6529549771940261e+06 1.3461823383291056e+06 0.0000000000000000e+00  4.2155635355808130e+06 -1.6059095324631207e+05 0.0000000000000000e+00  -7.1281475284717567e+06 2.2785786095611388e+06 0.0000000000000000e+00  -8.4839379851569212e+05 -1.0272684172680301e+06 0.0000000000000000e+00  2.1463256193070491e+06 1.4733518158699843e+05 0.0000000000000000e+00  1.9589229872707194e+06 -1.1245456371621498e+05 0.0000000000000000e+00  -5.9367617291127611e+05 6.6599763273540128e+05 0.0000000000000000e+00  1.2862180580024361e+06 -3.8813545314273913e+05 0.0000000000000000e+00  2.5602160212987493e+05 1.5737096254394706e+06 0.0000000000000000e+00  -7.0546636637666039e+06 -2.1792182841236014e+06 0.0000000000000000e+00  3.2958609606850664e+06 3.9398348369186744e+06 0.0000000000000000e+00  -3.7839349401642969e+06 1.6265643788079673e+06 0.0000000000000000e+00  4.7981457058069156e+06 -1.2396318606487077e+05 0.0000000000000000e+00  5.5483417439519549e+06 -1.2777642403147309e+06 0.0000000000000000e+00  7.7229317734844200e+06 8.9599553691457759e+05 0.0000000000000000e+00  7.7256556077772109e+06 -8.8947004379172111e+05 0.0000000000000000e+00  1.0324368892602236e+06 -4.5778806281889521e+05 0.0000000000000000e+00  -1.0006827157963083e+05 -1.7573076930347369e+06 0.0000000000000000e+00  1.1662211449200173e+06 -4.4994879639036609e+06 0.0000000000000000e+00  0.0000000000000000e+00 0.0000000000000000e+00 0.0000000000000000e+00  6.4965971774543840e+06 1.6726786404136469e+05 0.0000000000000000e+00  2.4013766477389582e+06 1.0246048524556571e+06 0.0000000000000000e+00  0.0000000000000000e+00 0.0000000000000000e+00 0.0000000000000000e+00  4.7387090521478374e+06 -5.5228712136978575e+05 0.0000000000000000e+00  1.4714955048008317e+06 2.2837928253666850e+05 0.0000000000000000e+00  4.5787644497803794e+06 7.3191288307006180e+05 0.0000000000000000e+00  3.5639465684772902e+06 2.0159755072513389e+05 0.0000000000000000e+00  0.0000000000000000e+00 0.0000000000000000e+00 0.0000000000000000e+00  0.0000000000000000e+00 0.0000000000000000e+00 0.0000000000000000e+00  0.0000000000000000e+00 0.0000000000000000e+00 0.0000000000000000e+00  0.0000000000000000e+00 0.0000000000000000e+00 0.0000000000000000e+00  0.0000000000000000e+00 0.0000000000000000e+00 0.0000000000000000e+00  4.1343346711627105e+06 -9.3128560875200492e+04 0.0000000000000000e+00  0.0000000000000000e+00 0.0000000000000000e+00 0.0000000000000000e+00  1.8697711849712911e+06 5.9688601348559889e+04 0.0000000000000000e+00  1.8695330532275746e+06 -5.9749081471271806e+04 0.0000000000000000e+00  0.0000000000000000e+00 0.0000000000000000e+00 0.0000000000000000e+00  0.0000000000000000e+00 0.0000000000000000e+00 0.0000000000000000e+00  0.0000000000000000e+00 0.0000000000000000e+00 0.0000000000000000e+00  0.0000000000000000e+00 0.0000000000000000e+00 0.0000000000000000e+00  4.1345256396867190e+06 9.2927542182604666e+04 0.0000000000000000e+00  6.1983454185333643e+06 1.1766729571700592e+06 0.0000000000000000e+00  9.3457190392434807e+05 3.8703010038881400e+05 0.0000000000000000e+00  -3.0718932648129915e+06 4.2333804908763636e+06 0.0000000000000000e+00  3.2860062892626934e+06 -2.2597970372553740e+05 0.0000000000000000e+00  9.4095771221083794e+06 -3.6045278137096734e+05 0.0000000000000000e+00  9.4756445618642624e+06 4.5458770801293012e+05 0.0000000000000000e+00  4.5955514024724439e+06 -1.3827093804638997e+04 0.0000000000000000e+00  1.9976366678717912e+06 -9.4195112130628526e+05 0.0000000000000000e+00  1.9621676571602363e+06 -2.6962200083490135e+05 0.0000000000000000e+00  -7.6335922870380699e+05 -2.9199085907823220e+06 0.0000000000000000e+00  -1.7484632223260056e+06 9.2840686463433737e+05 0.0000000000000000e+00  4.7513606659035701e+06 -2.2077419301409475e+06 0.0000000000000000e+00  7.7472469849909600e+06 -6.4311170315719733e+05 0.0000000000000000e+00  7.7292340017105192e+06 6.6006856807509123e+05 0.0000000000000000e+00  -5.2306320220664208e+05 1.6739020588535198e+06 0.0000000000000000e+00  4.8861746163483923e+06 2.1298190745267540e+05 0.0000000000000000e+00  3.7832454876659513e+06 3.9129742961177294e+05 0.0000000000000000e+00  4.1134095619368291e+05 5.7825260301121743e+05 0.0000000000000000e+00  3.5100797236762890e+06 -8.2537456471012882e+05 0.0000000000000000e+00  -2.6368347386428504e+06 -7.8185881455031713e+05 0.0000000000000000e+00  -3.9718435930623957e+06 -4.0231220577535061e+06 0.0000000000000000e+00  3.1191925523621324e+06 -1.2984829943866390e+06 0.0000000000000000e+00  6.3815646163977822e+06 -3.0052380160815399e+06 0.0000000000000000e+00  5.6963078050463786e+06 -5.3124282445047935e+05 0.0000000000000000e+00  -4.6726344635817381e+06 -1.1108762689541869e+06 0.0000000000000000e+00  -5.5868373357008677e+06 9.3237626285992062e+05 0.0000000000000000e+00  4.2993769198048729e+06 -3.7972689133268123e+05 0.0000000000000000e+00  3.4883817145328922e+06 1.3256262645657528e+06 0.0000000000000000e+00  4.2098210231527789e+06 1.3042030253450702e+05 0.0000000000000000e+00  9.0346625840371121e+06 4.0792434981346059e+03 0.0000000000000000e+00  6.8049410478366520e+06 -6