<?xml version="1.0"?>
<VTKFile type="UnstructuredGrid"  version="0.1"  >
<UnstructuredGrid>
<Piece  NumberOfPoints="1335" NumberOfCells="2312">
<Points>
<DataArray  type="Float64"  NumberOfComponents="3"  format="ascii">0 10 0  0 0 0  3 0 0  3 7.96077e-06 0  3.00046 0.0523651 0  3.00183 0.104706 0  3.00411 0.157016 0  3.00731 0.209277 0  3.01142 0.261475 0  3.01644 0.313593 0  3.02236 0.365616 0  3.0292 0.417527 0  3.03694 0.469311 0  3.04558 0.520952 0  3.05512 0.572434 0  3.06556 0.623742 0  3.07689 0.67486 0  3.08911 0.725773 0  3.10222 0.776464 0  3.11622 0.826919 0  3.13109 0.877122 0  3.14683 0.927058 0  3.16345 0.976711 0  3.18092 1.02607 0  3.19926 1.07511 0  3.21845 1.12383 0  3.23849 1.1722 0  3.25937 1.22022 0  3.28108 1.26786 0  3.30362 1.31512 0  3.32698 1.36198 0  3.35116 1.40842 0  3.37614 1.45443 0  3.40193 1.50001 0  3.4285 1.54512 0  3.45586 1.58976 0  3.48399 1.63392 0  3.51289 1.67758 0  3.54255 1.72073 0  3.57295 1.76336 0  3.6041 1.80545 0  3.63597 1.84699 0  3.66857 1.88797 0  3.70187 1.92837 0  3.73588 1.96818 0  3.77057 2.0074 0  3.80594 2.046 0  3.84198 2.08398 0  3.87868 2.12132 0  3.91603 2.15802 0  3.95401 2.19407 0  3.99261 2.22944 0  4.03183 2.26413 0  4.07164 2.29814 0  4.11204 2.33144 0  4.15302 2.36404 0  4.19456 2.39591 0  4.23665 2.42705 0  4.27928 2.45746 0  4.32243 2.48712 0  4.36609 2.51601 0  4.41025 2.54415 0  4.45489 2.5715 0  4.5 2.59808 0  4.54558 2.62386 0  4.59159 2.64885 0  4.63803 2.67302 0  4.68489 2.69638 0  4.73215 2.71893 0  4.77979 2.74064 0  4.82781 2.76152 0  4.87618 2.78155 0  4.9249 2.80074 0  4.97394 2.81908 0  5.0233 2.83656 0  5.07295 2.85317 0  5.12289 2.86892 0  5.17309 2.88379 0  5.22355 2.89778 0  5.27424 2.91089 0  5.32515 2.92311 0  5.37627 2.93444 0  5.42758 2.94488 0  5.47906 2.95442 0  5.5307 2.96307 0  5.58248 2.9708 0  5.6344 2.97764 0  5.68642 2.98357 0  5.73854 2.98858 0  5.79073 2.99269 0  5.843 2.99589 0  5.89531 2.99817 0  5.94765 2.99954 0  6 3 0  6 0 0  10 0 0  10 10 0  6 10 0  6 7 0  5.99999 7 0  5.94763 7.00046 0  5.89529 7.00183 0  5.84298 7.00411 0  5.79072 7.00731 0  5.73852 7.01142 0  5.6864 7.01644 0  5.63438 7.02236 0  5.58247 7.0292 0  5.53069 7.03694 0  5.47904 7.04558 0  5.42756 7.05512 0  5.37625 7.06556 0  5.32514 7.07689 0  5.27422 7.08912 0  5.22353 7.10223 0  5.17308 7.11622 0  5.12287 7.13109 0  5.07294 7.14683 0  5.02329 7.16345 0  4.97393 7.18093 0  4.92489 7.19926 0  4.87617 7.21845 0  4.8278 7.23849 0  4.77978 7.25937 0  4.73214 7.28108 0  4.68488 7.30362 0  4.63802 7.32699 0  4.59158 7.35116 0  4.54556 7.37615 0  4.49999 7.40193 0  4.45488 7.4285 0  4.41023 7.45586 0  4.36607 7.48399 0  4.32241 7.51289 0  4.27926 7.54255 0  4.23664 7.57296 0  4.19455 7.6041 0  4.15301 7.63597 0  4.11203 7.66857 0  4.07163 7.70187 0  4.03182 7.73588 0  3.9926 7.77057 0  3.954 7.80595 0  3.91602 7.84199 0  3.87867 7.87869 0  3.84197 7.91603 0  3.80593 7.95401 0  3.77056 7.99262 0  3.73586 8.031829999999999 0  3.70186 8.07164 0  3.66856 8.11205 0  3.63596 8.15302 0  3.60409 8.194559999999999 0  3.57294 8.236649999999999 0  3.54254 8.27928 0  3.51288 8.322430000000001 0  3.48398 8.36609 0  3.45585 8.41025 0  3.42849 8.454890000000001 0  3.40192 8.50001 0  3.37614 8.545579999999999 0  3.35115 8.59159 0  3.32698 8.63804 0  3.30361 8.684889999999999 0  3.28107 8.732150000000001 0  3.25936 8.7798 0  3.23848 8.827809999999999 0  3.21845 8.876189999999999 0  3.19926 8.924899999999999 0  3.18092 8.97395 0  3.16344 9.023300000000001 0  3.14683 9.07296 0  3.13108 9.12289 0  3.11621 9.1731 0  3.10222 9.223549999999999 0  3.08911 9.274240000000001 0  3.07689 9.32516 0  3.06556 9.37627 0  3.05512 9.427580000000001 0  3.04558 9.47906 0  3.03693 9.5307 0  3.02919 9.58249 0  3.02236 9.634399999999999 0  3.01643 9.68642 0  3.01142 9.73854 0  3.00731 9.79074 0  3.00411 9.843 0  3.00183 9.89531 0  3.00046 9.947649999999999 0  3 10 0  0 5 0  10 5 0  2.85427 4.93782 0  8 0 0  10 2.5 0  8 10 0  10 7.5 0  0 2.5 0  0 7.5 0  8.125 3.75 0  8.125 6.25 0  4.96037 5 0  1.45504 6.25 0  1.97929 3.07244 0  8.225540000000001 1.86957 0  8.225540000000001 8.13043 0  1.5 10 0  1.5 0 0  1.68713 7.99201 0  6.63081 4.59812 0  1.71339 1.54031 0  3.02251 6.51383 0  6 1.5 0  6 8.5 0  3.34246 3.57093 0  1.41636 4.47439 0  0 8.75 0  10 8.75 0  10 1.25 0  9 0 0  7.21942 8.95744 0  7.21942 1.04256 0  0 1.25 0  0 3.75 0  0 6.25 0  10 6.25 0  7.84672 5 0  10 3.75 0  7.2789 7.23814 0  7.2789 2.76186 0  6.81754 5.93093 0  3.88797 5.62446 0  9 10 0  9.0625 3.125 0  8.923360000000001 4.58371 0  9.0625 6.875 0  4.48504 3.90775 0  5.68291 5.87651 0  5.62789 4.10201 0  2.56714 2.18128 0  0.891663 3.125 0  2.35135 4.03582 0  8.5 9.111929999999999 0  8.5 0.888068 0  1.10386 8.950369999999999 0  2.12618 8.915900000000001 0  7 10 0  7 0 0  2.12684 7.04697 0  9.0625 5.67478 0  0.775392 1.875 0  0.75 0 0  7.13319 3.74293 0  3.80205 4.63239 0  1.92731 5.35149 0  0.923283 5.39713 0  1.00379 7.19659 0  4.72275 6.19689 0  2.69952 7.81547 0  9.22283 1.875 0  9.22283 8.125 0  0.968598 0.934712 0  0.683563 8.125 0  8.20147 7.20768 0  8.19262 2.8358 0  6.85155 1.91596 0  6.85155 8.08404 0  3.93103 6.66863 0  5.83213 4.95093 0  1.48066 2.36984 0  2.25 0 0  2.23754 0.859286 0  3.31958 7.27844 0  6 0.75 0  6 9.25 0  10 0.625 0  9.32297 9.233370000000001 0  2.66325 5.7552 0  3.24855 2.71221 0  0.79701 3.93851 0  6.36763 3.86836 0  9.241820000000001 1.10292 0  2.25 10 0  0.75 10 0  0 9.375 0  1.64865 3.75367 0  6 7.75 0  6 2.25 0  4.05832 3.24892 0  9.237780000000001 3.87771 0  0.695143 4.6821 0  0.727522 6.11139 0  2.64339 3.3695 0  3.16477 4.27809 0  7.62519 4.29471 0  8.72147 2.37014 0  2.33374 6.37562 0  8.338559999999999 5.54648 0  6.46403 5.30097 0  7.14236 5.09072 0  7.58081 5.71517 0  6.71723 6.70136 0  7.40812 6.43515 0  2.19796 4.71255 0  0 6.875 0  6.61533 2.5662 0  6.5974 7.389 0  7.53164 1.68823 0  7.54542 7.90369 0  8.72162 7.6558 0  2.59533 1.47217 0  10 4.375 0  0 0.625 0  8.283620000000001 4.39721 0  0 5.625 0  6.65924 3.24919 0  6.15057 6.35101 0  6.55483 8.875 0  7.89377 8.752330000000001 0  6.62247 1.30531 0  7.82565 0.6829539999999999 0  7.5 10 0  7.71709 9.382540000000001 0  7.77307 2.33782 0  7.69853 3.25886 0  9.34693 7.46399 0  9.35328 2.50848 0  5.12472 3.60334 0  1.60408 0.913965 0  0.653112 2.51678 0  6.67787 0.612163 0  8.012180000000001 1.28078 0  1.62913 9.351699999999999 0  0 4.375 0  6.5 10 0  0 8.125 0  10 8.125 0  0 1.875 0  0 3.125 0  10 5.625 0  10 6.875 0  10 1.875 0  10 3.125 0  10 9.375 0  4.55806 5.54216 0  3.44983 5.16265 0  3.55001 6.16137 0  2.64968 8.48908 0  8.73156 1.47664 0  8.726319999999999 8.51952 0  4.4599 4.56824 0  5.01334 4.25858 0  2.7147 7.20653 0  6.82479 9.418760000000001 0  5.33617 6.41835 0  8.785489999999999 6.27489 0  9.39127 6.19053 0  3.88795 3.82687 0  2.50785 2.78164 0  4.16376 5.10082 0  0.51339 9.0625 0  9.5 0 0  5.16192 5.56991 0  9.513339999999999 5.3125 0  9.50203 4.6875 0  8.465310000000001 4.96447 0  5.84413 3.57009 0  1.59922 7.3763 0  1.44103 6.82417 0  9.4331 0.566019 0  8.70537 3.60492 0  4.6148 3.3561 0  1.60371 8.59792 0  0.602773 6.72091 0  1.875 0.420206 0  6.11938 4.37022 0  9.42834 8.665139999999999 0  0.895636 9.464639999999999 0  7.72948 6.89876 0  2.0513 2.43345 0  7.43222 8.445970000000001 0  3.14133 2.14708 0  1.94828 5.93588 0  1.4332 5.67141 0  8.523250000000001 6.75993 0  8.994899999999999 5.12899 0  2.44279 9.42886 0  6.23164 5.80341 0  0.48238 3.48964 0  1.44194 3.23249 0  4.51047 6.74086 0  2.10748 8.358510000000001 0  1.125 0.405217 0  5.42736 4.59929 0  7.5 0 0  7.31243 0.508553 0  9.55583 3.4375 0  2.17788 1.81069 0  1.16068 7.75304 0  0.469265 7.24034 0  2.88846 3.83276 0  1.1567 4.92874 0  4.10887 6.13832 0  2.14568 7.63055 0  7.16213 4.55828 0  1.10956 8.427770000000001 0  2.16168 3.55553 0  1.89987 4.28924 0  2.6516 4.45962 0  9.5 10 0  8.206860000000001 9.53168 0  8.86443 9.491540000000001 0  8.5 0 0  8.897539999999999 0.527104 0  0.433892 0.9375 0  2.4053 5.17717 0  1.66418 4.9174 0  7.26039 2.24031 0  0.412635 5.3125 0  3.22993 5.68909 0  8.712350000000001 4.11704 0  8.5 10 0  6.5 0 0  1.86089 6.54716 0  0.7035090000000001 1.37024 0  1.22008 1.38622 0  1.33599 1.88184 0  9.611420000000001 1.5625 0  3.23255 7.80444 0  3.84799 7.19683 0  7.62907 3.7499 0  7.20265 3.25189 0  6.80255 4.12385 0  0.471312 0.428074 0  0.427311 9.62473 0  1.05209 6.52742 0  3.79104 2.77296 0  2.60815 8.9726 0  8.266690000000001 0.444034 0  1.24247 2.79134 0  7.99964 7.67464 0  1.17784 3.63882 0  0.461993 8.56898 0  9.512420000000001 2.96037 0  8.246919999999999 2.36432 0  7.11906 7.68829 0  7.05986 1.48952 0  6.41417 1.73174 0  6.93071 8.564870000000001 0  6 8.125 0  6.47508 8.392950000000001 0  5.90363 5.43728 0  9.53125 7.01181 0  4.13801 4.22527 0  8.94542 8.94266 0  3.34228 4.7091 0  9.611420000000001 7.85579 0  2.53191 0.456591 0  0.341782 7.8125 0  8.57591 3.13575 0  3.47249 6.61632 0  8.713889999999999 7.18761 0  7.73609 2.7947 0  9.6622 6.5625 0  0.334801 2.1875 0  3.60235 3.19195 0  6.41774 7.9375 0  2.61718 6.74845 0  5.40679 5.16272 0  9.55672 4.22164 0  0.461228 4.27129 0  9.67249 2.1875 0  6 9.625 0  6 0.375 0  7.12699 5.56767 0  2.97358 8.1744 0  1.875 10 0  1.80418 2.05898 0  2.68146 1.01101 0  8.776 1.92395 0  2.90196 3.00033 0  7.27095 9.400980000000001 0  0.445832 2.94897 0  9.66464 0.951033 0  9.56503 5.76719 0  4.92745 6.59018 0  8.149609999999999 3.28562 0  2.1405 1.32681 0  6.23648 3.37101 0  0.43178 5.76646 0  6.23856 4.79058 0  1.32745 4.04794 0  2.83473 1.8368 0  5.2649 5.99088 0  0 1.5625 0  8.330080000000001 8.70758 0  3.51449 2.36902 0  2.87368 2.4906 0  8.787890000000001 8.08731 0  1.7304 2.72084 0  1.05138 2.23166 0  0.764839 7.5643 0  6.4938 2.15402 0  8.65776 5.85194 0  7.84406 8.326359999999999 0  3.48238 3.98199 0  3.12894 6.10214 0  6.42629 9.577450000000001 0  7.62042 7.48752 0  2.72381 6.21701 0  2.90681 5.38111 0  8.05898 9.13852 0  2.25191 5.63241 0  0.407381 1.66991 0  6.39118 0.938035 0  9.67019 9.003880000000001 0  1.02978 5.81028 0  8.978429999999999 2.70852 0  7.64406 1.06763 0  3.
[...]
<PointData  Scalars="f_16-1"> 
<DataArray  type="Float64"  Name="f_16-1"  format="ascii">7.8803201696187598e+03  7.8796003898908948e+03  8.2301258396630437e+03  8.2301250154816953e+03  8.2268541347737300e+03  8.2278506826072608e+03  8.2282103377281819e+03  8.2367792775154321e+03  8.2475304710635792e+03  8.2644470881884008e+03  8.2876721134493182e+03  8.3051837833437203e+03  8.3316664955623237e+03  8.3546068544861137e+03  8.3855553512113638e+03  8.4118673229850665e+03  8.4402084416515409e+03  8.4684399060994365e+03  8.4993269607464663e+03  8.5283250524689720e+03  8.5572532872611682e+03  8.5850586037349203e+03  8.6101351535259510e+03  8.6415939372290341e+03  8.6638038461252636e+03  8.6881721283798288e+03  8.7139771338343216e+03  8.7357894693436701e+03  8.7532470958865761e+03  8.7771364017286724e+03  8.7897442122782450e+03  8.8099119086848441e+03  8.8210383881324942e+03  8.8310995751067112e+03  8.8434326568305605e+03  8.8543143838514661e+03  8.8585410483352553e+03  8.8575793803741635e+03  8.8658524408964713e+03  8.8551099784888193e+03  8.8635015884605218e+03  8.8469190370578235e+03  8.8466430096711956e+03  8.8274966010678345e+03  8.8114060846165739e+03  8.8032138593436648e+03  8.7749085079893466e+03  8.7508714493252846e+03  8.7326002401557907e+03  8.6963049366063879e+03  8.6610841120709720e+03  8.6249686431338650e+03  8.5946263027640143e+03  8.5404521566328567e+03  8.4922197055262859e+03  8.4469586266333845e+03  8.3857601215895393e+03  8.3250328685291006e+03  8.2759201433455983e+03  8.1906007530570041e+03  8.1259145975716738e+03  8.0447587095660356e+03  7.9730860619508248e+03  7.8820686499000176e+03  7.7896018196428804e+03  7.7137108743723938e+03  7.5921978274948679e+03  7.5007893261139416e+03  7.3862108259539691e+03  7.2906677866446717e+03  7.1545364019447461e+03  7.0434329783271969e+03  6.9220749883822882e+03  6.7878331877665350e+03  6.6650772865655408e+03  6.5163821588820974e+03  6.4015352426456102e+03  6.2376337971686826e+03  6.1078619153560794e+03  5.9609993598815054e+03  5.8323640534940587e+03  5.6846865572485904e+03  5.5415421700306451e+03  5.4384610035944388e+03  5.2738752648554537e+03  5.1751555806193064e+03  5.1034674217277534e+03  4.9800125224032445e+03  5.1370911211434450e+03  4.8381682776700573e+03  5.5768466203044745e+03  4.4552058578864744e+03  1.6870517010313641e+04  -6.4324311017565415e+03  -4.3953688327741412e+02  1.2738965420373432e+02  1.2022621863028820e+02  -4.3699589820779721e+02  -1.9576675052099561e+05  3.6800421529466606e+05  6.8278732677113539e+03  5.6019635158227402e+03  5.3125730431783468e+03  4.9660546744001567e+03  5.0475817676392762e+03  4.9839414649324090e+03  5.0725122694010570e+03  5.1970724132029063e+03  5.2935829013022521e+03  5.4286726784738594e+03  5.5446718375430519e+03  5.6933383040558174e+03  5.8341690769605193e+03  5.9643456254828898e+03  6.1253901385264189e+03  6.2485272133190765e+03  6.3929477171936023e+03  6.5269512377551237e+03  6.6647390907896433e+03  6.7847450952565941e+03  6.9348974983510325e+03  7.0376016447142511e+03  7.1745774750992750e+03  7.2772560543426116e+03  7.3971864731426676e+03  7.5018305220731345e+03  7.5991545585746808e+03  7.7123887513953405e+03  7.7917532840294161e+03  7.8847173533565365e+03  7.9722882257581678e+03  8.0500860056588963e+03  8.1222215350381894e+03  8.2096983790003378e+03  8.2608737249341430e+03  8.3399440998375558e+03  8.3828299187604425e+03  8.4527517640656224e+03  8.4909235325137161e+03  8.5423726243838846e+03  8.5948434542891337e+03  8.6205515673073969e+03  8.6691258127095498e+03  8.6961200992337890e+03  8.7266244285984903e+03  8.7629844216697929e+03  8.7737568578108476e+03  8.8015936276559914e+03  8.8203534425729904e+03  8.8288553987838804e+03  8.8389673435261102e+03  8.8530592450504446e+03  8.8622086417827140e+03  8.8605221871398298e+03  8.8582747202288792e+03  8.8613882618422103e+03  8.8614618913668255e+03  8.8483813880593862e+03  8.8472766105980700e+03  8.8325017171434156e+03  8.8211021703896386e+03  8.8116934438827284e+03  8.7912318741781000e+03  8.7747124070749560e+03  8.7576991956298934e+03  8.7352096128266967e+03  8.7097391118410960e+03  8.6896854190981667e+03  8.6654946284913331e+03  8.6386272015776558e+03  8.6139203004084520e+03  8.5850593003792783e+03  8.5532626389891830e+03  8.5288360158794349e+03  8.4979354526497445e+03  8.4702831852578838e+03  8.4406995991473777e+03  8.4114346551751332e+03  8.3850587598120601e+03  8.3554350594832904e+03  8.3333713912635430e+03  8.3056283779362984e+03  8.2850367244464596e+03  8.2646072681790502e+03  8.2511508225704547e+03  8.2342977227244155e+03  8.2312509953974150e+03  8.2259062332125031e+03  8.2286377153135618e+03  8.2310216781790059e+03  8.1331724593912440e+03  -1.8119142192349986e+02  7.1296689383006178e+03  -4.4243459496865327e+01  4.9216267936832480e+01  -3.9122446044221924e+01  4.8053484207894542e+01  7.9699597129073927e+03  7.9706125767617577e+03  3.3007920582665167e+02  3.3446930239792550e+02  4.8409604801845089e+03  7.7918402276154620e+03  7.8174323219360404e+03  -1.2898794344212979e+02  -1.2709558556111438e+02  7.8747759197344531e+03  7.8713885392836000e+03  8.0130256952954524e+03  1.8856902042317804e+03  8.0546479763498137e+03  7.4319335933688344e+03  -7.8533243737478165e+02  -7.8525943640069067e+02  7.2374208632292257e+03  7.7481723057165191e+03  7.9092016912358613e+03  1.0560423370653491e+02  1.0535128886228890e+02  1.5577320191733108e+02  -3.7865950844136796e+02  -3.7918890623985010e+02  7.9084554156133836e+03  8.0805362673604268e+03  8.0800280808610178e+03  -9.4099538994176839e+01  7.3067402317286030e+02  -9.6486395941636161e+01  -2.1891823122054544e+02  -2.2461815268746864e+02  1.3300004842023209e+03  6.4100536748267623e+03  1.5813679651814161e+02  5.8403989410438925e+01  1.9907728677894346e+02  5.8396013817895245e+01  5.9561726909234012e+03  3.5501813460792428e+03  3.6780682116908279e+03  8.1122191715097870e+03  7.9284579337589512e+03  7.4946283743914537e+03  -4.9400749902903748e+01  -5.0524679784989068e+01  7.9664244602850567e+03  8.1508019020776401e+03  -3.5539377755080653e+02  -3.5565462687020488e+02  7.8332488680596343e+03  1.4172232077799492e+02  7.9591430289496129e+03  7.7995472208000247e+03  7.3180863266319579e+02  6.4265762918691198e+03  7.5714199701956450e+03  7.8789694797265975e+03  7.9342665962204210e+03  5.6823599898404755e+03  8.1415608525532152e+03  1.8279889262237020e+01  1.9028776684530754e+01  7.9487776118651163e+03  7.9559408511283291e+03  1.7725056264773951e+01  2.5026894998523620e+01  -6.9050314358221647e+02  -6.9999897695518507e+02  7.0832984238084309e+03  3.2716591049240283e+03  7.9593590478113601e+03  8.0578943592399019e+03  8.1723813053781087e+03  7.8880453293123674e+03  -4.7187063402540377e+02  -4.7206300701642215e+02  9.6571676383344041e+01  6.9567348442173326e+01  7.3174162913739365e+03  7.8966931043326786e+03  7.9201835035993981e+03  1.8141903219804562e+03  3.8775579489068711e+01  8.0579701928977820e+03  7.8033949683504634e+03  7.9134403538329279e+03  7.7488645468640170e+03  -1.5923487203723241e+03  -1.5872406822876771e+03  7.0821406537659386e+03  7.3407509865649928e+01  7.9389493996654146e+03  7.9368562827485712e+03  7.6052583887670780e+03  7.0293888356785110e+03  7.5417576856005951e+02  -9.9133928633766111e+00  7.6042068613498532e+03  4.1721245246990031e+02  2.1575255667737792e+03  1.3136639369142429e+03  7.8133036453756495e+02  2.3157966963056393e+02  4.4523208097680714e+02  7.4657106248647679e+03  8.0269890466134975e+03  -1.0648707491467853e+03  -1.0692713829835275e+03  -3.3547647688543663e+02  -3.0808402380519777e+02  -1.3428547289491419e+01  8.3002165668842281e+03  -1.5575891406745018e+02  7.9164828495228812e+03  4.3321390577541177e+02  8.1186489286290926e+03  2.0544908916915603e+02  2.0591529704092345e+03  -5.5128219009006239e+02  -2.0901848412944929e+02  -5.8827687157684352e+02  -1.7983525846999981e+02  -1.9567378439338202e+02  -2.0029521766775440e+02  -1.9080250381699767e+02  1.8841494751299578e+02  2.9189150192718778e+01  2.7973267288876112e+01  5.1333654619613408e+03  8.0273882343473151e+03  7.9568772726916395e+03  -4.3743219873399516e+02  -1.8030201736300023e+02  8.0072958453259107e+03  8.1193911066954361e+03  -4.4415804850696713e+02  7.9310715397325594e+03  9.0845047094338440e+01  7.9286988527400126e+03  8.0258788167405146e+03  -1.5644546830112887e+02  -2.4095946028898997e+01  9.3314715625834324e+01  -2.1153691630798352e+01  9.2237841009911193e+01  5.5545177899147848e+03  6.7185153628154203e+03  6.9508702038335059e+03  8.3187695393986760e+03  -4.1247371957481306e+01  -4.1110048583190853e+01  5.6624914784538023e+03  4.8931161425390210e+03  7.8578397658156946e+03  -4.1208012846859617e+02  4.6867177966675563e+03  1.6261745929634574e+02  3.4850309680202059e+01  6.6885973235801694e+03  7.8689508074319838e+03  5.9927083770966565e+03  7.9231261774330769e+03  2.0382492955970679e+02  4.5605419387700122e+03  -1.4114544378653862e+00  1.5072064677288299e+00  3.9793241675621391e+02  3.0803828183230153e+03  7.9255328369118361e+03  7.8617675196557666e+03  9.3551347706569786e+01  1.6243737232801439e+02  6.3496948376997934e+03  8.0415042527054429e+03  7.9593317843530540e+03  8.0282863387881071e+03  2.6581742908391893e+03  4.9648035741530933e+01  7.9051053301946686e+03  1.0176325716745330e+02  7.9689466877728983e+03  -3.6597133055743461e+02  8.3019863052696492e+03  7.6257177340569015e+03  7.7498977175568989e+03  1.2255315898702217e+02  1.8272887851095595e+02  8.1982251646334680e+03  2.3653096773873699e+03  7.9806912009375619e+03  7.8552468111290809e+03  6.6258266901580691e+03  8.1248769534552894e+03  7.9046177812025717e+03  4.0409299722611249e+03  -1.9487638196931442e+02  -2.9521033415616029e+02  7.5606760154067132e+00  8.1157078699807826e+03  7.9619608033370296e+03  7.9664388815052434e+03  7.3364183059407778e+03  7.8106391453459146e+03  6.4464151739335339e+03  7.9929876887009350e+03  1.2289187989354605e+03  7.9810682389185204e+03  7.6626368066711420e+03  7.6138094081021854e+03  7.2845157132283639e+03  1.9623044159314742e+02  -6.3883459469128958e+01  5.0429082031105587e+01  7.6846125836139137e+01  5.0534567638089598e+01  7.9200041111171395e+03  7.3662135205599661e+03  7.6552714530463654e+03  -4.3644581148608154e+02  8.0151797382191526e+03  6.9803352698236731e+03  2.3499814146691887e+02  7.8285888899976968e+01  -4.4841662535891686e+02  7.7529074599975011e+03  7.9487222112167792e+03  7.9903217532026983e+03  7.9916722398652155e+03  6.1971024184263150e+01  8.2928942133991277e+03  7.7470130441320453e+03  4.8869582835651738e+02  1.7693749046359898e+02  1.3827763158202506e+03  7.8801027724185788e+03  7.8757976552439550e+03  7.8895000731170067e+03  7.7895171102491986e+03  8.3157082094366779e+03  -4.6938509560490573e+01  7.9199156294047743e+03  -1.2566995699738366e+02  7.8575646649003656e+03  7.9380105017004917e+03  2.4354851112561427e+01  -7.0461865557022122e+01  -5.2326923946808324e+02  -4.9498103463060443e+02  -8.5712804401097867e+02  -5.3947740859667613e+02  -1.0903106720958388e+03  -7.5894822073773980e+02  3.1155739808324875e+03  2.2296605506146147e+01  6.1971130199313748e+03  7.4414939388612638e+00  6.8167312191216579e+03  4.6897481093887485e+01  8.2070460393471149e+03  7.9529662272299565e+03  9.5799213915769641e+01  7.3107503677862715e+03  3.7821940048512310e+01  -4.3371508651124486e+01  -8.0405938223388826e+00  7.9535810788794497e+03  7.4036701852767474e+03  -1.0874845727248473e+03  7.6603814168637491e+03  4.0582176786946584e+03  -1.0304689878091063e+01  7.9984864414793165e+03  4.9713027840301180e+01  -4.3229485038952765e+02  -4.3105701780118500e+02  1.2183888096647563e+03  8.3844723928283274e+03  7.9477749765199069e+03  8.0205488248372267e+03  8.3445649740042190e+03  -3.1583423844038688e+01  7.7279480244097249e+03  -3.1421871577105156e+02  7.9724097072913291e+03  7.9630706039556685e+01  -1.2074367776811137e+01  5.7710435778182673e+03  1.6570488440831480e+02  8.1552061069276861e+03  9.8648858809350588e+02  8.0034342732816540e+03  2.5396582957526616e+03  7.7943391993951564e+03  8.3212874532547467e+03  4.5232002631838805e+03  7.9175244648236030e+03  -1.0698255431037457e+02  8.2481282573305289e+03  8.0269433162624036e+03  -2.9256322946676654e+01  7.9072022157356505e+03  7.9605953743377586e+03  7.9537525910577133e+03  -1.0902095359339405e+03  2.5548341176722391e+02  -2.3161024257420337e+02  6.9255026734472112e+03  7.1886657260114016e+03  -4.4377825716017145e+02  -1.9094747135434449e+02  7.4220533277953000e+03  7.1234642294908217e+03  -1.4054325573927008e+02  7.4757284368956025e+03  7.9406231211988807e+03  -5.2535297554979820e+02  8.0396572996490391e+01  7.8617822580218908e+03  2.8732741256948049e+01  -2.6274802189669919e+02  8.1822451422129616e+03  7.6168732971371919e+03  7.8663931094752970e+03  8.0633522534590320e+03  3.5437038842716661e+03  9.8921801018797350e+02  9.1766882949136402e+02  1.1359724221820854e+02  1.0751663958258682e+02  7.9190317981506187e+03  1.3629194982192763e+02  7.2862128650631657e+03  8.1144714448568884e+03  5.4517828580849919e+03  7.1449729425353917e+03  6.0928313007565521e+01  1.1494615382252060e+02  6.4346579552019921e+02  8.4927314586146406e+02  7.1932217194154441e+02  1.2218434002989563e+03  7.7357956546386140e+03  8.0382892453874074e+03  -2.5966248832616486e+02  1.0295749664912405e+02  5.8435814634937365e+01  6.5203236380182952e+03  8.0090857057753938e+03  2.5184902963518720e+01  3.0853761450208248e+02  4.2244217959790222e+02  -3.6217973076276911e+02  5.1231431074338479e+02  5.1864994128086460e+02  6.6814252785253461e+02  9.6166480877872959e+02  2.7714409509513648e+03  9.4575479468704020e+02  -1.5703411912766125e+01  6.7837494653650808e+01  1.2973410024724996e+02  1.3138817744889556e+01  9.4390390714787724e+00  8.1805229549688484e+03  5.2143674682370556e+03  7.9985413383118184e+03  8.1289550496371958e+03  8.0236983963603143e+03  2.7983755567015731e+02  4.9896795724455743e+01  4.7184648194894698e+03  4.1486196053041222e+03  7.7752597889627777e+03  7.6381698422992386e+03  -1.8803997998920570e+02  8.0164766243927952e+03  3.8374004026808798e+03  -1.4327429643143271e+03  -2.7886834223217670e+03  8.1821086068685945e+03  7.9110595305636425e+03  7.9703328219119012e+03  -1.0903193192312233e+03  7.8192531817358131e+03  7.8321307179760461e+03  7.9495771080401291e+03  -5.7814022397449457e+02  -2.9468947560715201e+03  7.8180661256668764e+03  -5.8520285398621661e+02  7.8320467936739569e+03  7.4958768984296512e+03  7.9548360255755197e+03  6.0727741776870935e+03  -9.3722184957912589e+01  4.7187540704937164e+03  -8.5571419584141893e+02  5.1870258332163189e+02  5.3578489943465297e+02  5.9205759176671272e+03  6.7387872905621061e+03  7.0718319586687849e+03  3.3884640504904669e+03  7.7303876246832015e+03  7.5093833261176042e+03  7.4987721710924625e+03  1.9874560947863640e+03  7.6196671096146647e+03  8.4868061840011414e+03  6.3304437566681863e+03  8.0086932027380681e+03  -7.2242710443255339e+02  1.7893353670242850e+03  2.7284168177509196e+03  1.6621183881523575e+03  -6.7570897735841285e+01  7.8305043054297721e+03  -7.8675913310614817e+02  -4.4440973645447116e+02  7.8642026052105266e+03  -3.6439707288655018e+02  -2.1362692055771669e+02  -4.8443746660356055e+02  9.4923081171830699e+00  -4.8786712203475815e+02  6.3936163123898514e+03  -4.9374034039970735e+02  7.9286813483124652e+03  1.1231549135938833e+02  7.9223868684070803e+03  7.9078091142000967e+03  7.9813704292829698e+03  4.4758336798987038e+03  5.7301352191264541e+03  -1.0872984032240969e+02  -3.0589611537187380e+02  3.9967351661624400e+00  7.7210101164407997e+03  -1.9927477204281274e+02  7.9516262338650904e+03  -1.6593775189866942e+03  7.0359612223505437e+03  -4.6668867517684072e+02  7.4794803786009679e+03  7.3076248718400202e+03  7.5330269823095950e+03  7.9698470356199423e+03  2.6778683648258743e+02  -1.6873970169403517e+03  -3.6821056665059274e+02  7.4620928418125159e+03  3.1823336776899847e+01  3.6997560340843543e+03  -6.5398245052409777e+01  8.4597288108787725e+03  -8.5533184445705803e+00  1.1693362473794943e+01  7.9402912861292043e+03  8.5222230969537595e+03  -1.2027111090046715e+02  6.0308967042253917e+03  -3.1368107466925318e+02  5.0762092369739196e+02  8.1017052930248619e+03  2.8614106660040900e+01  7.9705562767390720e+03  8.2351758999839349e+03  5.0312477042488163e+03  -1.2930619049041488e+02  6.2012487418062150e+01  7.5978123234499681e+03  7.9225726221826935e+03  3.0474262035160400e+01  7.2482165960170360e+03  -1.9071703770815770e+02  -6.6913067515261082e+02  -4.8021603238372080e+02  -5.5915168212065296e+01  -1.7375865415219440e+02  -3.8102469560028084e+02  8.1343705844633168e+03  8.2371153391454736e+03  3.0271956915680028e+02  2.7784607769009563e+03  -4.1948217624446295e+02  -5.6519685250273290e+02  2.6870737584285536e+02  6.6044941578507414e+03  7.9703423733220798e+03  6.7624093206035777e+03  8.0705553540771307e+03  5.2133623900027505e+03  6.0317357203776801e+03  5.7755338589825487e+03  1.0023386089143190e+02  1.1937951426371512e+02  7.9761950651660181e+03  3.3567150453005425e+01  2.1910706495704119e+01  5.3976697759030831e+03  8.1002895072930141e+03  -3.4514448252985716e+02  8.2077789794219989e+03  4.1874170900677598e+02  8.0378439111547195e+03  -2.2811580239902008e+02  -2.8023332096657145e+02  7.9481203614902352e+03  7.9571427378359867e+03  7.9648266723190991e+03  -7.0699622882404697e+02  -6.5194995256300422e+02  5.1363459178561197e+03  -2.2367819879468865e+02  -7.6839508071615626e+01  2.8699789818382624e+02  9.1873286212053475e+00  6.7378502686586635e+03  7.9470135103195462e+03  -2.7018797010556614e+02  -1.3171632976444138e+02  -4.1043344787981347e+01  8.0556968195760546e+03  8.1031123057843879e+03  2.0798271766304379e+02  7.7031519292241383e+03  5.7100181453517713e+01  -5.2371615642752670e+02  -3.3484979057245290e+01  7.8873120670959806e+03  2.8281036836274062e+01  7.9928347575114074e+01  8.0435565843124105e+03  7.9748979224259319e+03  1.7050219848762001e+02  -7.5631415298855558e+01  4.3201703424228890e+03  7.9362663891327693e+03  6.9636318350290994e+03  6.0037325416196118e+03  8.0291756559091618e+03  7.9721314769295022e+03  8.0500781822593990e+03  6.8589936372460179e+03  5.4008114378468172e+03  5.3038721138146893e+03  -9.4498515109522671e+01  -4.8055930285532646e+01  6.5767891319541450e+03  7.3020364635309843e+03  7.9988565539390456e+03  6.7240624412527159e+03  8.2256869377129224e+03  -1.3668959382436103e+02  -2.3498133809018500e+03  6.0167568121030250e+01  4.8277447557625538e+02  8.2524454845726505e+03  8.1010169124453987e+03  1.0202754240332057e+02  7.5605595055668417e+01  7.9472474373029581e+03  -5.8970114150478985e+01  7.9479433091448700e+03  1.7793505029385468e+01  7.3761855776077411e+01  1.0463982090833106e+02  1.0289173884031926e+02  8.1300191342208955e+03  7.9094099703779530e+03  7.9998363657215004e+03  8.0543787733876452e+03  -5.9341793115153671e+01  -1.7325908456026880e+02  7.9168334811534096e+03  7.9135544007558037e+03  7.9338480145346730e+03  6.3194742578905988e+01  1.6450184342156785e+01  8.3212541073978664e+03  2.8922105642283316e+02  -2.6625850562865685e+02  8.0038348632423304e+03  8.0813615596358550e+03  7.9443572789741220e+03  7.8894821932601626e+03  7.9379362304342758e+03  7.9060924279074879e+03  7.7113680884101741e+03  1.0374857952675251e+02  6.3276608312060625e+03  9.0923510033873029e+01  -1.1520560277752899e+02  9.0402995993291057e+01  7.2146034444610841e+03  6.4696657883304688e+03  -1.5923194275268759e+02  7.6590178141851775e+03  7.6359173798797556e+01  7.9549406628989345e+03  6.2802344929836707e+01  -3.5180304855985414e+00  7.7213579975812490e+03  7.1351471713654846e+03  1.0238486173347603e+03  1.5716143122066221e+03  8.0003320209658305e+03  8.1002939052187849e+03  8.0550626652238016e+03  1.7256922591367888e+03  7.7952713188581192e+03  7.8523187010914007e+03  7.8198567543968102e+03  7.9813714758668693e+03  3.7476025793675456e+02  -4.7088493003610029e+02  -3.9041833396065925e+02  1.5535249534270667e+03  7.7974655148028287e+03  7.7130868554268927e+03  7.6515741204994965e+03  4.0032254016702058e+02  7.9978709156176110e+03  7.7382825424615621e+03  7.984699