<?xml version="1.0"?>
<VTKFile type="UnstructuredGrid"  version="0.1"  >
<UnstructuredGrid>
<Piece  NumberOfPoints="1335" NumberOfCells="2312">
<Points>
<DataArray  type="Float64"  NumberOfComponents="3"  format="ascii">0 10 0  0 0 0  3 0 0  3 7.96077e-06 0  3.00046 0.0523651 0  3.00183 0.104706 0  3.00411 0.157016 0  3.00731 0.209277 0  3.01142 0.261475 0  3.01644 0.313593 0  3.02236 0.365616 0  3.0292 0.417527 0  3.03694 0.469311 0  3.04558 0.520952 0  3.05512 0.572434 0  3.06556 0.623742 0  3.07689 0.67486 0  3.08911 0.725773 0  3.10222 0.776464 0  3.11622 0.826919 0  3.13109 0.877122 0  3.14683 0.927058 0  3.16345 0.976711 0  3.18092 1.02607 0  3.19926 1.07511 0  3.21845 1.12383 0  3.23849 1.1722 0  3.25937 1.22022 0  3.28108 1.26786 0  3.30362 1.31512 0  3.32698 1.36198 0  3.35116 1.40842 0  3.37614 1.45443 0  3.40193 1.50001 0  3.4285 1.54512 0  3.45586 1.58976 0  3.48399 1.63392 0  3.51289 1.67758 0  3.54255 1.72073 0  3.57295 1.76336 0  3.6041 1.80545 0  3.63597 1.84699 0  3.66857 1.88797 0  3.70187 1.92837 0  3.73588 1.96818 0  3.77057 2.0074 0  3.80594 2.046 0  3.84198 2.08398 0  3.87868 2.12132 0  3.91603 2.15802 0  3.95401 2.19407 0  3.99261 2.22944 0  4.03183 2.26413 0  4.07164 2.29814 0  4.11204 2.33144 0  4.15302 2.36404 0  4.19456 2.39591 0  4.23665 2.42705 0  4.27928 2.45746 0  4.32243 2.48712 0  4.36609 2.51601 0  4.41025 2.54415 0  4.45489 2.5715 0  4.5 2.59808 0  4.54558 2.62386 0  4.59159 2.64885 0  4.63803 2.67302 0  4.68489 2.69638 0  4.73215 2.71893 0  4.77979 2.74064 0  4.82781 2.76152 0  4.87618 2.78155 0  4.9249 2.80074 0  4.97394 2.81908 0  5.0233 2.83656 0  5.07295 2.85317 0  5.12289 2.86892 0  5.17309 2.88379 0  5.22355 2.89778 0  5.27424 2.91089 0  5.32515 2.92311 0  5.37627 2.93444 0  5.42758 2.94488 0  5.47906 2.95442 0  5.5307 2.96307 0  5.58248 2.9708 0  5.6344 2.97764 0  5.68642 2.98357 0  5.73854 2.98858 0  5.79073 2.99269 0  5.843 2.99589 0  5.89531 2.99817 0  5.94765 2.99954 0  6 3 0  6 0 0  10 0 0  10 10 0  6 10 0  6 7 0  5.99999 7 0  5.94763 7.00046 0  5.89529 7.00183 0  5.84298 7.00411 0  5.79072 7.00731 0  5.73852 7.01142 0  5.6864 7.01644 0  5.63438 7.02236 0  5.58247 7.0292 0  5.53069 7.03694 0  5.47904 7.04558 0  5.42756 7.05512 0  5.37625 7.06556 0  5.32514 7.07689 0  5.27422 7.08912 0  5.22353 7.10223 0  5.17308 7.11622 0  5.12287 7.13109 0  5.07294 7.14683 0  5.02329 7.16345 0  4.97393 7.18093 0  4.92489 7.19926 0  4.87617 7.21845 0  4.8278 7.23849 0  4.77978 7.25937 0  4.73214 7.28108 0  4.68488 7.30362 0  4.63802 7.32699 0  4.59158 7.35116 0  4.54556 7.37615 0  4.49999 7.40193 0  4.45488 7.4285 0  4.41023 7.45586 0  4.36607 7.48399 0  4.32241 7.51289 0  4.27926 7.54255 0  4.23664 7.57296 0  4.19455 7.6041 0  4.15301 7.63597 0  4.11203 7.66857 0  4.07163 7.70187 0  4.03182 7.73588 0  3.9926 7.77057 0  3.954 7.80595 0  3.91602 7.84199 0  3.87867 7.87869 0  3.84197 7.91603 0  3.80593 7.95401 0  3.77056 7.99262 0  3.73586 8.031829999999999 0  3.70186 8.07164 0  3.66856 8.11205 0  3.63596 8.15302 0  3.60409 8.194559999999999 0  3.57294 8.236649999999999 0  3.54254 8.27928 0  3.51288 8.322430000000001 0  3.48398 8.36609 0  3.45585 8.41025 0  3.42849 8.454890000000001 0  3.40192 8.50001 0  3.37614 8.545579999999999 0  3.35115 8.59159 0  3.32698 8.63804 0  3.30361 8.684889999999999 0  3.28107 8.732150000000001 0  3.25936 8.7798 0  3.23848 8.827809999999999 0  3.21845 8.876189999999999 0  3.19926 8.924899999999999 0  3.18092 8.97395 0  3.16344 9.023300000000001 0  3.14683 9.07296 0  3.13108 9.12289 0  3.11621 9.1731 0  3.10222 9.223549999999999 0  3.08911 9.274240000000001 0  3.07689 9.32516 0  3.06556 9.37627 0  3.05512 9.427580000000001 0  3.04558 9.47906 0  3.03693 9.5307 0  3.02919 9.58249 0  3.02236 9.634399999999999 0  3.01643 9.68642 0  3.01142 9.73854 0  3.00731 9.79074 0  3.00411 9.843 0  3.00183 9.89531 0  3.00046 9.947649999999999 0  3 10 0  0 5 0  10 5 0  2.85427 4.93782 0  8 0 0  10 2.5 0  8 10 0  10 7.5 0  0 2.5 0  0 7.5 0  8.125 3.75 0  8.125 6.25 0  4.96037 5 0  1.45504 6.25 0  1.97929 3.07244 0  8.225540000000001 1.86957 0  8.225540000000001 8.13043 0  1.5 10 0  1.5 0 0  1.68713 7.99201 0  6.63081 4.59812 0  1.71339 1.54031 0  3.02251 6.51383 0  6 1.5 0  6 8.5 0  3.34246 3.57093 0  1.41636 4.47439 0  0 8.75 0  10 8.75 0  10 1.25 0  9 0 0  7.21942 8.95744 0  7.21942 1.04256 0  0 1.25 0  0 3.75 0  0 6.25 0  10 6.25 0  7.84672 5 0  10 3.75 0  7.2789 7.23814 0  7.2789 2.76186 0  6.81754 5.93093 0  3.88797 5.62446 0  9 10 0  9.0625 3.125 0  8.923360000000001 4.58371 0  9.0625 6.875 0  4.48504 3.90775 0  5.68291 5.87651 0  5.62789 4.10201 0  2.56714 2.18128 0  0.891663 3.125 0  2.35135 4.03582 0  8.5 9.111929999999999 0  8.5 0.888068 0  1.10386 8.950369999999999 0  2.12618 8.915900000000001 0  7 10 0  7 0 0  2.12684 7.04697 0  9.0625 5.67478 0  0.775392 1.875 0  0.75 0 0  7.13319 3.74293 0  3.80205 4.63239 0  1.92731 5.35149 0  0.923283 5.39713 0  1.00379 7.19659 0  4.72275 6.19689 0  2.69952 7.81547 0  9.22283 1.875 0  9.22283 8.125 0  0.968598 0.934712 0  0.683563 8.125 0  8.20147 7.20768 0  8.19262 2.8358 0  6.85155 1.91596 0  6.85155 8.08404 0  3.93103 6.66863 0  5.83213 4.95093 0  1.48066 2.36984 0  2.25 0 0  2.23754 0.859286 0  3.31958 7.27844 0  6 0.75 0  6 9.25 0  10 0.625 0  9.32297 9.233370000000001 0  2.66325 5.7552 0  3.24855 2.71221 0  0.79701 3.93851 0  6.36763 3.86836 0  9.241820000000001 1.10292 0  2.25 10 0  0.75 10 0  0 9.375 0  1.64865 3.75367 0  6 7.75 0  6 2.25 0  4.05832 3.24892 0  9.237780000000001 3.87771 0  0.695143 4.6821 0  0.727522 6.11139 0  2.64339 3.3695 0  3.16477 4.27809 0  7.62519 4.29471 0  8.72147 2.37014 0  2.33374 6.37562 0  8.338559999999999 5.54648 0  6.46403 5.30097 0  7.14236 5.09072 0  7.58081 5.71517 0  6.71723 6.70136 0  7.40812 6.43515 0  2.19796 4.71255 0  0 6.875 0  6.61533 2.5662 0  6.5974 7.389 0  7.53164 1.68823 0  7.54542 7.90369 0  8.72162 7.6558 0  2.59533 1.47217 0  10 4.375 0  0 0.625 0  8.283620000000001 4.39721 0  0 5.625 0  6.65924 3.24919 0  6.15057 6.35101 0  6.55483 8.875 0  7.89377 8.752330000000001 0  6.62247 1.30531 0  7.82565 0.6829539999999999 0  7.5 10 0  7.71709 9.382540000000001 0  7.77307 2.33782 0  7.69853 3.25886 0  9.34693 7.46399 0  9.35328 2.50848 0  5.12472 3.60334 0  1.60408 0.913965 0  0.653112 2.51678 0  6.67787 0.612163 0  8.012180000000001 1.28078 0  1.62913 9.351699999999999 0  0 4.375 0  6.5 10 0  0 8.125 0  10 8.125 0  0 1.875 0  0 3.125 0  10 5.625 0  10 6.875 0  10 1.875 0  10 3.125 0  10 9.375 0  4.55806 5.54216 0  3.44983 5.16265 0  3.55001 6.16137 0  2.64968 8.48908 0  8.73156 1.47664 0  8.726319999999999 8.51952 0  4.4599 4.56824 0  5.01334 4.25858 0  2.7147 7.20653 0  6.82479 9.418760000000001 0  5.33617 6.41835 0  8.785489999999999 6.27489 0  9.39127 6.19053 0  3.88795 3.82687 0  2.50785 2.78164 0  4.16376 5.10082 0  0.51339 9.0625 0  9.5 0 0  5.16192 5.56991 0  9.513339999999999 5.3125 0  9.50203 4.6875 0  8.465310000000001 4.96447 0  5.84413 3.57009 0  1.59922 7.3763 0  1.44103 6.82417 0  9.4331 0.566019 0  8.70537 3.60492 0  4.6148 3.3561 0  1.60371 8.59792 0  0.602773 6.72091 0  1.875 0.420206 0  6.11938 4.37022 0  9.42834 8.665139999999999 0  0.895636 9.464639999999999 0  7.72948 6.89876 0  2.0513 2.43345 0  7.43222 8.445970000000001 0  3.14133 2.14708 0  1.94828 5.93588 0  1.4332 5.67141 0  8.523250000000001 6.75993 0  8.994899999999999 5.12899 0  2.44279 9.42886 0  6.23164 5.80341 0  0.48238 3.48964 0  1.44194 3.23249 0  4.51047 6.74086 0  2.10748 8.358510000000001 0  1.125 0.405217 0  5.42736 4.59929 0  7.5 0 0  7.31243 0.508553 0  9.55583 3.4375 0  2.17788 1.81069 0  1.16068 7.75304 0  0.469265 7.24034 0  2.88846 3.83276 0  1.1567 4.92874 0  4.10887 6.13832 0  2.14568 7.63055 0  7.16213 4.55828 0  1.10956 8.427770000000001 0  2.16168 3.55553 0  1.89987 4.28924 0  2.6516 4.45962 0  9.5 10 0  8.206860000000001 9.53168 0  8.86443 9.491540000000001 0  8.5 0 0  8.897539999999999 0.527104 0  0.433892 0.9375 0  2.4053 5.17717 0  1.66418 4.9174 0  7.26039 2.24031 0  0.412635 5.3125 0  3.22993 5.68909 0  8.712350000000001 4.11704 0  8.5 10 0  6.5 0 0  1.86089 6.54716 0  0.7035090000000001 1.37024 0  1.22008 1.38622 0  1.33599 1.88184 0  9.611420000000001 1.5625 0  3.23255 7.80444 0  3.84799 7.19683 0  7.62907 3.7499 0  7.20265 3.25189 0  6.80255 4.12385 0  0.471312 0.428074 0  0.427311 9.62473 0  1.05209 6.52742 0  3.79104 2.77296 0  2.60815 8.9726 0  8.266690000000001 0.444034 0  1.24247 2.79134 0  7.99964 7.67464 0  1.17784 3.63882 0  0.461993 8.56898 0  9.512420000000001 2.96037 0  8.246919999999999 2.36432 0  7.11906 7.68829 0  7.05986 1.48952 0  6.41417 1.73174 0  6.93071 8.564870000000001 0  6 8.125 0  6.47508 8.392950000000001 0  5.90363 5.43728 0  9.53125 7.01181 0  4.13801 4.22527 0  8.94542 8.94266 0  3.34228 4.7091 0  9.611420000000001 7.85579 0  2.53191 0.456591 0  0.341782 7.8125 0  8.57591 3.13575 0  3.47249 6.61632 0  8.713889999999999 7.18761 0  7.73609 2.7947 0  9.6622 6.5625 0  0.334801 2.1875 0  3.60235 3.19195 0  6.41774 7.9375 0  2.61718 6.74845 0  5.40679 5.16272 0  9.55672 4.22164 0  0.461228 4.27129 0  9.67249 2.1875 0  6 9.625 0  6 0.375 0  7.12699 5.56767 0  2.97358 8.1744 0  1.875 10 0  1.80418 2.05898 0  2.68146 1.01101 0  8.776 1.92395 0  2.90196 3.00033 0  7.27095 9.400980000000001 0  0.445832 2.94897 0  9.66464 0.951033 0  9.56503 5.76719 0  4.92745 6.59018 0  8.149609999999999 3.28562 0  2.1405 1.32681 0  6.23648 3.37101 0  0.43178 5.76646 0  6.23856 4.79058 0  1.32745 4.04794 0  2.83473 1.8368 0  5.2649 5.99088 0  0 1.5625 0  8.330080000000001 8.70758 0  3.51449 2.36902 0  2.87368 2.4906 0  8.787890000000001 8.08731 0  1.7304 2.72084 0  1.05138 2.23166 0  0.764839 7.5643 0  6.4938 2.15402 0  8.65776 5.85194 0  7.84406 8.326359999999999 0  3.48238 3.98199 0  3.12894 6.10214 0  6.42629 9.577450000000001 0  7.62042 7.48752 0  2.72381 6.21701 0  2.90681 5.38111 0  8.05898 9.13852 0  2.25191 5.63241 0  0.407381 1.66991 0  6.39118 0.938035 0  9.67019 9.003880000000001 0  1.02978 5.81028 0  8.978429999999999 2.70852 0  7.64406 1.06763 0  3.
[...]
<PointData  Vectors="f_16-0"> 
<DataArray  type="Float64"  Name="f_16-0"  NumberOfComponents="3" format="ascii">0.0000000000000000e+00 0.0000000000000000e+00 0.0000000000000000e+00  0.0000000000000000e+00 0.0000000000000000e+00 0.0000000000000000e+00  0.0000000000000000e+00 0.0000000000000000e+00 0.0000000000000000e+00  0.0000000000000000e+00 0.0000000000000000e+00 0.0000000000000000e+00  0.0000000000000000e+00 0.0000000000000000e+00 0.0000000000000000e+00  0.0000000000000000e+00 0.0000000000000000e+00 0.0000000000000000e+00  0.0000000000000000e+00 0.0000000000000000e+00 0.0000000000000000e+00  0.0000000000000000e+00 0.0000000000000000e+00 0.0000000000000000e+00  0.0000000000000000e+00 0.0000000000000000e+00 0.0000000000000000e+00  0.0000000000000000e+00 0.0000000000000000e+00 0.0000000000000000e+00  0.0000000000000000e+00 0.0000000000000000e+00 0.0000000000000000e+00  0.0000000000000000e+00 0.0000000000000000e+00 0.0000000000000000e+00  0.0000000000000000e+00 0.0000000000000000e+00 0.0000000000000000e+00  0.0000000000000000e+00 0.0000000000000000e+00 0.0000000000000000e+00  0.0000000000000000e+00 0.0000000000000000e+00 0.0000000000000000e+00  0.0000000000000000e+00 0.0000000000000000e+00 0.0000000000000000e+00  0.0000000000000000e+00 0.0000000000000000e+00 0.0000000000000000e+00  0.0000000000000000e+00 0.0000000000000000e+00 0.0000000000000000e+00  0.0000000000000000e+00 0.0000000000000000e+00 0.0000000000000000e+00  0.0000000000000000e+00 0.0000000000000000e+00 0.0000000000000000e+00  0.0000000000000000e+00 0.0000000000000000e+00 0.0000000000000000e+00  0.0000000000000000e+00 0.0000000000000000e+00 0.0000000000000000e+00  0.0000000000000000e+00 0.0000000000000000e+00 0.0000000000000000e+00  0.0000000000000000e+00 0.0000000000000000e+00 0.0000000000000000e+00  0.0000000000000000e+00 0.0000000000000000e+00 0.0000000000000000e+00  0.0000000000000000e+00 0.0000000000000000e+00 0.0000000000000000e+00  0.0000000000000000e+00 0.0000000000000000e+00 0.0000000000000000e+00  0.0000000000000000e+00 0.0000000000000000e+00 0.0000000000000000e+00  0.0000000000000000e+00 0.0000000000000000e+00 0.0000000000000000e+00  0.0000000000000000e+00 0.0000000000000000e+00 0.0000000000000000e+00  0.0000000000000000e+00 0.0000000000000000e+00 0.0000000000000000e+00  0.0000000000000000e+00 0.0000000000000000e+00 0.0000000000000000e+00  0.0000000000000000e+00 0.0000000000000000e+00 0.0000000000000000e+00  0.0000000000000000e+00 0.0000000000000000e+00 0.0000000000000000e+00  0.0000000000000000e+00 0.0000000000000000e+00 0.0000000000000000e+00  0.0000000000000000e+00 0.0000000000000000e+00 0.0000000000000000e+00  0.0000000000000000e+00 0.0000000000000000e+00 0.0000000000000000e+00  0.0000000000000000e+00 0.0000000000000000e+00 0.0000000000000000e+00  0.0000000000000000e+00 0.0000000000000000e+00 0.0000000000000000e+00  0.0000000000000000e+00 0.0000000000000000e+00 0.0000000000000000e+00  0.0000000000000000e+00 0.0000000000000000e+00 0.0000000000000000e+00  0.0000000000000000e+00 0.0000000000000000e+00 0.0000000000000000e+00  0.0000000000000000e+00 0.0000000000000000e+00 0.0000000000000000e+00  0.0000000000000000e+00 0.0000000000000000e+00 0.0000000000000000e+00  0.0000000000000000e+00 0.0000000000000000e+00 0.0000000000000000e+00  0.0000000000000000e+00 0.0000000000000000e+00 0.0000000000000000e+00  0.0000000000000000e+00 0.0000000000000000e+00 0.0000000000000000e+00  0.0000000000000000e+00 0.0000000000000000e+00 0.0000000000000000e+00  0.0000000000000000e+00 0.0000000000000000e+00 0.0000000000000000e+00  0.0000000000000000e+00 0.0000000000000000e+00 0.0000000000000000e+00  0.0000000000000000e+00 0.0000000000000000e+00 0.0000000000000000e+00  0.0000000000000000e+00 0.0000000000000000e+00 0.0000000000000000e+00  0.0000000000000000e+00 0.0000000000000000e+00 0.0000000000000000e+00  0.0000000000000000e+00 0.0000000000000000e+00 0.0000000000000000e+00  0.0000000000000000e+00 0.0000000000000000e+00 0.0000000000000000e+00  0.0000000000000000e+00 0.0000000000000000e+00 0.0000000000000000e+00  0.0000000000000000e+00 0.0000000000000000e+00 0.0000000000000000e+00  0.0000000000000000e+00 0.0000000000000000e+00 0.0000000000000000e+00  0.0000000000000000e+00 0.0000000000000000e+00 0.0000000000000000e+00  0.0000000000000000e+00 0.0000000000000000e+00 0.0000000000000000e+00  0.0000000000000000e+00 0.0000000000000000e+00 0.0000000000000000e+00  0.0000000000000000e+00 0.0000000000000000e+00 0.0000000000000000e+00  0.0000000000000000e+00 0.0000000000000000e+00 0.0000000000000000e+00  0.0000000000000000e+00 0.0000000000000000e+00 0.0000000000000000e+00  0.0000000000000000e+00 0.0000000000000000e+00 0.0000000000000000e+00  0.0000000000000000e+00 0.0000000000000000e+00 0.0000000000000000e+00  0.0000000000000000e+00 0.0000000000000000e+00 0.0000000000000000e+00  0.0000000000000000e+00 0.0000000000000000e+00 0.0000000000000000e+00  0.0000000000000000e+00 0.0000000000000000e+00 0.0000000000000000e+00  0.0000000000000000e+00 0.0000000000000000e+00 0.0000000000000000e+00  0.0000000000000000e+00 0.0000000000000000e+00 0.0000000000000000e+00  0.0000000000000000e+00 0.0000000000000000e+00 0.0000000000000000e+00  0.0000000000000000e+00 0.0000000000000000e+00 0.0000000000000000e+00  0.0000000000000000e+00 0.0000000000000000e+00 0.0000000000000000e+00  0.0000000000000000e+00 0.0000000000000000e+00 0.0000000000000000e+00  0.0000000000000000e+00 0.0000000000000000e+00 0.0000000000000000e+00  0.0000000000000000e+00 0.0000000000000000e+00 0.0000000000000000e+00  0.0000000000000000e+00 0.0000000000000000e+00 0.0000000000000000e+00  0.0000000000000000e+00 0.0000000000000000e+00 0.0000000000000000e+00  0.0000000000000000e+00 0.0000000000000000e+00 0.0000000000000000e+00  0.0000000000000000e+00 0.0000000000000000e+00 0.0000000000000000e+00  0.0000000000000000e+00 0.0000000000000000e+00 0.0000000000000000e+00  0.0000000000000000e+00 0.0000000000000000e+00 0.0000000000000000e+00  0.0000000000000000e+00 0.0000000000000000e+00 0.0000000000000000e+00  0.0000000000000000e+00 0.0000000000000000e+00 0.0000000000000000e+00  0.0000000000000000e+00 0.0000000000000000e+00 0.0000000000000000e+00  0.0000000000000000e+00 0.0000000000000000e+00 0.0000000000000000e+00  0.0000000000000000e+00 0.0000000000000000e+00 0.0000000000000000e+00  0.0000000000000000e+00 0.0000000000000000e+00 0.0000000000000000e+00  0.0000000000000000e+00 0.0000000000000000e+00 0.0000000000000000e+00  0.0000000000000000e+00 0.0000000000000000e+00 0.0000000000000000e+00  0.0000000000000000e+00 0.0000000000000000e+00 0.0000000000000000e+00  0.0000000000000000e+00 0.0000000000000000e+00 0.0000000000000000e+00  0.0000000000000000e+00 0.0000000000000000e+00 0.0000000000000000e+00  4.2799750671667201e-13 0.0000000000000000e+00 0.0000000000000000e+00  0.0000000000000000e+00 0.0000000000000000e+00 0.0000000000000000e+00  0.0000000000000000e+00 0.0000000000000000e+00 0.0000000000000000e+00  0.0000000000000000e+00 0.0000000000000000e+00 0.0000000000000000e+00  0.0000000000000000e+00 0.0000000000000000e+00 0.0000000000000000e+00  0.0000000000000000e+00 0.0000000000000000e+00 0.0000000000000000e+00  0.0000000000000000e+00 0.0000000000000000e+00 0.0000000000000000e+00  0.0000000000000000e+00 0.0000000000000000e+00 0.0000000000000000e+00  0.0000000000000000e+00 0.0000000000000000e+00 0.0000000000000000e+00  0.0000000000000000e+00 0.0000000000000000e+00 0.0000000000000000e+00  0.0000000000000000e+00 0.0000000000000000e+00 0.0000000000000000e+00  0.0000000000000000e+00 0.0000000000000000e+00 0.0000000000000000e+00  0.0000000000000000e+00 0.0000000000000000e+00 0.0000000000000000e+00  0.0000000000000000e+00 0.0000000000000000e+00 0.0000000000000000e+00  0.0000000000000000e+00 0.0000000000000000e+00 0.0000000000000000e+00  0.0000000000000000e+00 0.0000000000000000e+00 0.0000000000000000e+00  0.0000000000000000e+00 0.0000000000000000e+00 0.0000000000000000e+00  0.0000000000000000e+00 0.0000000000000000e+00 0.0000000000000000e+00  0.0000000000000000e+00 0.0000000000000000e+00 0.0000000000000000e+00  0.0000000000000000e+00 0.0000000000000000e+00 0.0000000000000000e+00  0.0000000000000000e+00 0.0000000000000000e+00 0.0000000000000000e+00  0.0000000000000000e+00 0.0000000000000000e+00 0.0000000000000000e+00  0.0000000000000000e+00 0.0000000000000000e+00 0.0000000000000000e+00  0.0000000000000000e+00 0.0000000000000000e+00 0.0000000000000000e+00  0.0000000000000000e+00 0.0000000000000000e+00 0.0000000000000000e+00  0.0000000000000000e+00 0.0000000000000000e+00 0.0000000000000000e+00  0.0000000000000000e+00 0.0000000000000000e+00 0.0000000000000000e+00  0.0000000000000000e+00 0.0000000000000000e+00 0.0000000000000000e+00  0.0000000000000000e+00 0.0000000000000000e+00 0.0000000000000000e+00  0.0000000000000000e+00 0.0000000000000000e+00 0.0000000000000000e+00  0.0000000000000000e+00 0.0000000000000000e+00 0.0000000000000000e+00  0.0000000000000000e+00 0.0000000000000000e+00 0.0000000000000000e+00  0.0000000000000000e+00 0.0000000000000000e+00 0.0000000000000000e+00  0.0000000000000000e+00 0.0000000000000000e+00 0.0000000000000000e+00  0.0000000000000000e+00 0.0000000000000000e+00 0.0000000000000000e+00  0.0000000000000000e+00 0.0000000000000000e+00 0.0000000000000000e+00  0.0000000000000000e+00 0.0000000000000000e+00 0.0000000000000000e+00  0.0000000000000000e+00 0.0000000000000000e+00 0.0000000000000000e+00  0.0000000000000000e+00 0.0000000000000000e+00 0.0000000000000000e+00  0.0000000000000000e+00 0.0000000000000000e+00 0.0000000000000000e+00  0.0000000000000000e+00 0.0000000000000000e+00 0.0000000000000000e+00  0.0000000000000000e+00 0.0000000000000000e+00 0.0000000000000000e+00  0.0000000000000000e+00 0.0000000000000000e+00 0.0000000000000000e+00  0.0000000000000000e+00 0.0000000000000000e+00 0.0000000000000000e+00  0.0000000000000000e+00 0.0000000000000000e+00 0.0000000000000000e+00  0.0000000000000000e+00 0.0000000000000000e+00 0.0000000000000000e+00  0.0000000000000000e+00 0.0000000000000000e+00 0.0000000000000000e+00  0.0000000000000000e+00 0.0000000000000000e+00 0.0000000000000000e+00  0.0000000000000000e+00 0.0000000000000000e+00 0.0000000000000000e+00  0.0000000000000000e+00 0.0000000000000000e+00 0.0000000000000000e+00  0.0000000000000000e+00 0.0000000000000000e+00 0.0000000000000000e+00  0.0000000000000000e+00 0.0000000000000000e+00 0.0000000000000000e+00  0.0000000000000000e+00 0.0000000000000000e+00 0.0000000000000000e+00  0.0000000000000000e+00 0.0000000000000000e+00 0.0000000000000000e+00  0.0000000000000000e+00 0.0000000000000000e+00 0.0000000000000000e+00  0.0000000000000000e+00 0.0000000000000000e+00 0.0000000000000000e+00  0.0000000000000000e+00 0.0000000000000000e+00 0.0000000000000000e+00  0.0000000000000000e+00 0.0000000000000000e+00 0.0000000000000000e+00  0.0000000000000000e+00 0.0000000000000000e+00 0.0000000000000000e+00  0.0000000000000000e+00 0.0000000000000000e+00 0.0000000000000000e+00  0.0000000000000000e+00 0.0000000000000000e+00 0.0000000000000000e+00  0.0000000000000000e+00 0.0000000000000000e+00 0.0000000000000000e+00  0.0000000000000000e+00 0.0000000000000000e+00 0.0000000000000000e+00  0.0000000000000000e+00 0.0000000000000000e+00 0.0000000000000000e+00  0.0000000000000000e+00 0.0000000000000000e+00 0.0000000000000000e+00  0.0000000000000000e+00 0.0000000000000000e+00 0.0000000000000000e+00  0.0000000000000000e+00 0.0000000000000000e+00 0.0000000000000000e+00  0.0000000000000000e+00 0.0000000000000000e+00 0.0000000000000000e+00  0.0000000000000000e+00 0.0000000000000000e+00 0.0000000000000000e+00  0.0000000000000000e+00 0.0000000000000000e+00 0.0000000000000000e+00  0.0000000000000000e+00 0.0000000000000000e+00 0.0000000000000000e+00  0.0000000000000000e+00 0.0000000000000000e+00 0.0000000000000000e+00  0.0000000000000000e+00 0.0000000000000000e+00 0.0000000000000000e+00  0.0000000000000000e+00 0.0000000000000000e+00 0.0000000000000000e+00  0.0000000000000000e+00 0.0000000000000000e+00 0.0000000000000000e+00  0.0000000000000000e+00 0.0000000000000000e+00 0.0000000000000000e+00  0.0000000000000000e+00 0.0000000000000000e+00 0.0000000000000000e+00  0.0000000000000000e+00 0.0000000000000000e+00 0.0000000000000000e+00  0.0000000000000000e+00 0.0000000000000000e+00 0.0000000000000000e+00  0.0000000000000000e+00 0.0000000000000000e+00 0.0000000000000000e+00  0.0000000000000000e+00 0.0000000000000000e+00 0.0000000000000000e+00  0.0000000000000000e+00 0.0000000000000000e+00 0.0000000000000000e+00  0.0000000000000000e+00 0.0000000000000000e+00 0.0000000000000000e+00  0.0000000000000000e+00 0.0000000000000000e+00 0.0000000000000000e+00  0.0000000000000000e+00 0.0000000000000000e+00 0.0000000000000000e+00  0.0000000000000000e+00 0.0000000000000000e+00 0.0000000000000000e+00  0.0000000000000000e+00 0.0000000000000000e+00 0.0000000000000000e+00  0.0000000000000000e+00 0.0000000000000000e+00 0.0000000000000000e+00  0.0000000000000000e+00 0.0000000000000000e+00 0.0000000000000000e+00  0.0000000000000000e+00 0.0000000000000000e+00 0.0000000000000000e+00  0.0000000000000000e+00 0.0000000000000000e+00 0.0000000000000000e+00  0.0000000000000000e+00 0.0000000000000000e+00 0.0000000000000000e+00  0.0000000000000000e+00 0.0000000000000000e+00 0.0000000000000000e+00  0.0000000000000000e+00 0.0000000000000000e+00 0.0000000000000000e+00  0.0000000000000000e+00 0.0000000000000000e+00 0.0000000000000000e+00  0.0000000000000000e+00 0.0000000000000000e+00 0.0000000000000000e+00  1.0329379627654787e+07 7.2722840460265672e+02 0.0000000000000000e+00  1.0937853147993162e+07 -1.0771463725034077e+03 0.0000000000000000e+00  1.4391058798527069e+07 1.5558649208185892e+05 0.0000000000000000e+00  0.0000000000000000e+00 0.0000000000000000e+00 0.0000000000000000e+00  5.9487038604094218e+06 -1.2020851001968498e+06 0.0000000000000000e+00  0.0000000000000000e+00 0.0000000000000000e+00 0.0000000000000000e+00  5.9586658507912345e+06 1.2023115521850619e+06 0.0000000000000000e+00  6.1928536483191233e+06 9.8690355492907832e+05 0.0000000000000000e+00  6.1913954043389913e+06 -9.8612279173752351e+05 0.0000000000000000e+00  1.0770977869807703e+07 -2.5193644267735793e+06 0.0000000000000000e+00  1.0783723963696454e+07 2.5177769550330844e+06 0.0000000000000000e+00  1.9948443990174249e+07 9.0979362800474864e+03 0.0000000000000000e+00  9.9372104415103197e+06 -1.4427502577150050e+06 0.0000000000000000e+00  7.8861716330173966e+06 2.2406313511035838e+06 0.0000000000000000e+00  2.7795410571174412e+06 -1.3876486540269225e+06 0.0000000000000000e+00  2.7880509228394488e+06 1.3902220961352803e+06 0.0000000000000000e+00  0.0000000000000000e+00 0.0000000000000000e+00 0.0000000000000000e+00  0.0000000000000000e+00 0.0000000000000000e+00 0.0000000000000000e+00  3.9834331496076938e+06 -1.4919574755729772e+06 0.0000000000000000e+00  1.8043804982550591e+07 -1.2726717815021912e+06 0.0000000000000000e+00  2.5534448038973659e+06 1.0443818950202322e+06 0.0000000000000000e+00  1.0272112568711337e+07 -3.0033946135103884e+06 0.0000000000000000e+00  0.0000000000000000e+00 0.0000000000000000e+00 0.0000000000000000e+00  0.0000000000000000e+00 0.0000000000000000e+00 0.0000000000000000e+00  1.1039166950919235e+07 3.1170044081742424e+06 0.0000000000000000e+00  1.1349836981218327e+07 6.7924673746200756e+05 0.0000000000000000e+00  3.0344668522218671e+06 -5.2224135171544860e+05 0.0000000000000000e+00  2.7288161959817000e+06 5.9362762240750156e+05 0.0000000000000000e+00  2.7220518401658479e+06 -5.9302184899847151e+05 0.0000000000000000e+00  0.0000000000000000e+00 0.0000000000000000e+00 0.0000000000000000e+00  2.1624733441579802e+05 2.3017112090456128e+05 0.0000000000000000e+00  2.1502215924985145e+05 -2.2904393747735387e+05 0.0000000000000000e+00  3.0357218758968776e+06 5.2170562416628888e+05 0.0000000000000000e+00  9.1134727225433402e+06 8.0175343024841358e+05 0.0000000000000000e+00  9.1130587157374118e+06 -8.0121768870149658e+05 0.0000000000000000e+00  9.3916906247620061e+06 1.0504531310900266e+06 0.0000000000000000e+00  1.4592436649156360e+07 -2.2492728338008587e+03 0.0000000000000000e+00  9.3836231810114533e+06 -1.0513694537541582e+06 0.0000000000000000e+00  4.7432846057959711e+06 3.1815658651509043e+06 0.0000000000000000e+00  4.7306409322430901e+06 -3.1762380911414968e+06 0.0000000000000000e+00  1.5121459007488666e+07 3.0202909392813011e+06 0.0000000000000000e+00  1.6125294818305215e+07 -1.7344922949238440e+06 0.0000000000000000e+00  0.0000000000000000e+00 0.0000000000000000e+00 0.0000000000000000e+00  7.8337467905728649e+06 -1.7227047769652354e+06 0.0000000000000000e+00  1.1975496342099583e+07 -6.4681033046145842e+05 0.0000000000000000e+00  7.8453977853619009e+06 1.7220845013173372e+06 0.0000000000000000e+00  1.4836428417406214e+07 2.4697720647875308e+06 0.0000000000000000e+00  1.7750605148708757e+07 3.3387036952872935e+05 0.0000000000000000e+00  1.7599667796306834e+07 -1.3902860629833385e+05 0.0000000000000000e+00  3.6386951119958465e+06 2.1003409848287827e+06 0.0000000000000000e+00  7.9113804801835446e+06 1.3113588604755129e+06 0.0000000000000000e+00  1.1750295835957514e+07 1.8096030532278111e+06 0.0000000000000000e+00  9.7776055870545399e+05 3.6595737485281506e+05 0.0000000000000000e+00  9.7389163834142359e+05 -3.6523190698719153e+05 0.0000000000000000e+00  1.9118646342456855e+06 -4.7794860793798201e+05 0.0000000000000000e+00  1.0663796981097620e+06 -5.9533599532724719e+05 0.0000000000000000e+00  0.0000000000000000e+00 0.0000000000000000e+00 0.0000000000000000e+00  0.0000000000000000e+00 0.0000000000000000e+00 0.0000000000000000e+00  7.3879827699819244e+06 -2.3816493411296792e+06 0.0000000000000000e+00  1.1386176946708031e+07 9.2733120569878665e+05 0.0000000000000000e+00  4.2203393552270913e+06 9.5714723459050409e+05 0.0000000000000000e+00  0.0000000000000000e+00 0.0000000000000000e+00 0.0000000000000000e+00  1.2088004908468606e+07 -3.7263802979329070e+06 0.0000000000000000e+00  1.6615038588749073e+07 1.0550389505803753e+06 0.0000000000000000e+00  1.2277585498262038e+07 -5.9507386419811391e+05 0.0000000000000000e+00  1.0941726869855277e+07 -3.9775441633685306e+05 0.0000000000000000e+00  6.9397563404069012e+06 -1.3999160418514365e+06 0.0000000000000000e+00  1.4296252303195897e+07 -2.3092121845100657e+06 0.0000000000000000e+00  3.4573713452136214e+06 -2.1259432175123342e+06 0.0000000000000000e+00  3.7687616423937110e+06 -1.0788688816931690e+06 0.0000000000000000e+00  3.7779919357301202e+06 1.0801550917156453e+06 0.0000000000000000e+00  1.7586258880091021e+06 3.8342071042561007e+05 0.0000000000000000e+00  4.2679551620804695e+06 -9.2588506471051206e+05 0.0000000000000000e+00  6.2019518929472975e+06 2.4877322497837641e+06 0.0000000000000000e+00  6.3801881445712764e+06 -2.5284078972929488e+06 0.0000000000000000e+00  6.6668725780789333e+05 -7.9756958901241596e+05 0.0000000000000000e+00  6.6578008548665687e+05 7.9868013505674596e+05 0.0000000000000000e+00  9.5972284838368576e+06 -3.2700034195291959e+06 0.0000000000000000e+00  2.0356479205415528e+07 -4.1936571171938587e+04 0.0000000000000000e+00  5.3604548380678054e+06 1.6179832307340414e+06 0.0000000000000000e+00  0.0000000000000000e+00 0.0000000000000000e+00 0.0000000000000000e+00  6.1002092361300334e+05 3.6520955279748718e+05 0.0000000000000000e+00  5.4063838256465858e+06 -2.9170884532067934e+06 0.0000000000000000e+00  0.0000000000000000e+00 0.0000000000000000e+00 0.0000000000000000e+00  0.0000000000000000e+00 0.0000000000000000e+00 0.0000000000000000e+00  1.4272959225637342e+06 -2.3955941446651242e+05 0.0000000000000000e+00  1.3253923921019579e+06 2.8605108043112414e+05 0.0000000000000000e+00  1.2887088961579315e+07 -1.6514235238042139e+06 0.0000000000000000e+00  5.4455574821156478e+06 2.9159146002106704e+06 0.0000000000000000e+00  9.8961789508360811e+06 9.0845493852414703e+05 0.0000000000000000e+00  1.4884046578526676e+07 -2.9833864761301731e+06 0.0000000000000000e+00  1.9211750236697749e+06 -5.0797308978347393e+05 0.0000000000000000e+00  0.0000000000000000e+00 0.0000000000000000e+00 0.0000000000000000e+00  0.0000000000000000e+00 0.000000000000